

 Parallel Execution: Process Information
 ==============================================================================
 Rank   Node Name                              NodeID   MyNodeRank  NodeMaster
    0   andy-laptop                               0          0          0
    1   andy-laptop                               0          1         -1
 ==============================================================================


May use up to 3738MB of RAM as shared memory on node 0

 *******************************************************************************
 *                                                                             *
 *  --------------------------------                                           *
 *   Amsterdam Modeling Suite (AMS)              2021.104                      *
 *  --------------------------------                                           *
 *                                               r97106 2021-09-10             *
 *                                                                             *
 *                                                                             *
 *                              =================                              *
 *                              |               |                              *
 *                              |     A M S     |                              *
 *                              |               |                              *
 *                              =================                              *
 *                                                                             *
 *                                                                             *
 *   Online information and documentation:  https://www.scm.com/support/       *
 *   E-mail:  support@scm.com   info@scm.com                                   *
 *                                                                             *
 *   Scientific publications using AMS results must be properly referenced     *
 *   See the User Manuals (or the web site) for recommended citations          *
 *   The terms and conditions of the End User License Agreement apply to       *
 *   the use of AMS, https://www.scm.com/license-terms/                        *
 *                                                                             *
 **********************  x86_64_linux_intel / intelmpi  ************************
 
 Licensed to: Mr. Andrew Turgeson (Andy Turgeson group) / University of Tennessee at Chattanooga / Chattanooga / Tennessee / USA 2021-09-19 20:27:26
 SCM User ID: u24505
  
 AMS 2021.104  RunTime: Sep19-2021 15:28:22  ShM Nodes: 1  Procs: 2

 AMS jobname: ams
 AMS jobid  : 2080886611

 Start   directory: /home/andy/namd/react/ASM1/tmp.andy.18138.0.noindex/
 Results directory: /home/andy/namd/react/ASM1/ATPeasy.results/
 Scratch directory: /tmp/amstmp_ams_kid0.2080886611/


 Communication costs MPI_COMM_WORLD:      0.464 usec per message,   0.0036 usec per 8-byte item
 Communication costs for intra-node:      0.633 usec per message,   0.0034 usec per 8-byte item

 RNG seed: -1499739632 -91525668 -1598770547 -2125015406 1371238152 -322682877 658532405 -583957350
 MPI rank    0: Number of processors available to this process:      2
 MPI rank    0: Default max number of OpenMP threads:                2
 MPI rank    0: The OMP_NUM_THREADS environment variable is not set!
 MPI rank    0: Restrict max number of OpenMP threads to:            1
Force field identifier: Reactive MD-force field: Gly with dummy 
 Triple bond stabilization enabled for C-O only
 Non-bonding interaction type[nonbontype]:
 No inner wall, shielding
 Warning:changed vval3 to valf for X 
       ***********************
       *  MOLECULAR DYNAMICS *
       ***********************

 
-------------------------------------------
Molecular Dynamics Configuration Parameters
-------------------------------------------
Number of steps                        30000
Time per step (fs)                    0.2500
Thermostat                              None
Barostat                                None
Preserve                            TotalMomentum
Checkpoint frequency                    1000
Trajectory sampling frequency            100
Printing frequency                       100
Initial Velocities                     Random
Initial Velocities Temperature (K)       325.0000
 
---------------------------
ReaxFF Engine configuration
---------------------------
Bond order cutoff                      0.001000
Force field                            CHONSSiNaP.ff
Furman torsions                        F
Nonreactive                            F
Taper bond orders                      F
Torsion version                        original
 
 
--------------------
 Molecular Dynamics 
--------------------
 
          Step       Time    Temp.         E Tot         E Pot         E Kin         Press           Vol  <Temp.>       <E Tot>       <E Pot>       <E Kin>
                     (fs)      (K)          (au)          (au)          (au)         (MPa)      (Ang**3)      (K)          (au)          (au)          (au)
 
             0       0.00     325.    -732.28016    -741.44274       9.16259   14718.65861   64479.55858     325.    -732.28016    -741.44274       9.16259
           100      25.00    1124.    -732.31671    -764.00496      31.68826    5302.90639   64479.55858    1032.    -732.32864    -761.41707      29.08843
           200      50.00    1137.    -732.31578    -764.38015      32.06437    2728.01096   64479.55858    1067.    -732.32264    -762.41114      30.08850
           300      75.00    1118.    -732.31684    -763.82759      31.51074    1243.22196   64479.55858    1082.    -732.32051    -762.83713      30.51663
           400     100.00    1130.    -732.31272    -764.16305      31.85033     796.24639   64479.55858    1093.    -732.31913    -763.13315      30.81402
           500     125.00    1116.    -732.31506    -763.77187      31.45681     743.97483   64479.55858    1101.    -732.31823    -763.35772      31.03949
           600     150.00    1113.    -732.32526    -763.69485      31.36959     471.72770   64479.55858    1104.    -732.31853    -763.45387      31.13534
           700     175.00    1129.    -732.32478    -764.14303      31.81825     480.55296   64479.55858    1107.    -732.31934    -763.53465      31.21530
           800     200.00    1113.    -732.32585    -763.70806      31.38220     326.30981   64479.55858    1108.    -732.32004    -763.56295      31.24290
           900     225.00    1109.    -732.32732    -763.58112      31.25380     280.40947   64479.55858    1109.    -732.32077    -763.59957      31.27880
          1000     250.00    1111.    -732.32543    -763.63519      31.30976     493.50951   64479.55858    1110.    -732.32134    -763.62312      31.30178
          1100     275.00    1115.    -732.32747    -763.75092      31.42345     381.86093   64479.55858    1111.    -732.32192    -763.65148      31.32955
          1200     300.00    1122.    -732.33022    -763.95362      31.62340     515.37326   64479.55858    1111.    -732.32255    -763.65544      31.33289
          1300     325.00    1108.    -732.32963    -763.55436      31.22473     582.16952   64479.55858    1112.    -732.32317    -763.66331      31.34014
          1400     350.00    1108.    -732.33290    -763.55704      31.22414     530.24555   64479.55858    1111.    -732.32381    -763.65569      31.33188
          1500     375.00    1113.    -732.33219    -763.69990      31.36771     706.86411   64479.55858    1111.    -732.32434    -763.65072      31.32638
          1600     400.00    1102.    -732.33130    -763.39682      31.06552     816.91313   64479.55858    1111.    -732.32469    -763.64639      31.32169
          1700     425.00    1105.    -732.32599    -763.47542      31.14943     886.76643   64479.55858    1111.    -732.32497    -763.64109      31.31612
          1800     450.00    1111.    -732.32070    -763.65088      31.33019     869.64880   64479.55858    1111.    -732.32498    -763.63624      31.31126
          1900     475.00    1112.    -732.31620    -763.66421      31.34801     879.29864   64479.55858    1110.    -732.32465    -763.62977      31.30512
          2000     500.00    1120.    -732.31445    -763.89548      31.58103     677.70411   64479.55858    1110.    -732.32418    -763.61724      31.29306
          2100     525.00    1118.    -732.30710    -763.82281      31.51571     668.46641   64479.55858    1110.    -732.32342    -763.61458      31.29116
          2200     550.00    1104.    -732.30409    -763.42247      31.11838     706.15085   64479.55858    1110.    -732.32264    -763.61495      31.29231
          2300     575.00    1095.    -732.30241    -763.18144      30.87903     523.14153   64479.55858    1109.    -732.32179    -763.59941      31.27762
          2400     600.00    1099.    -732.29448    -763.29162      30.99714     655.10878   64479.55858    1109.    -732.32095    -763.58654      31.26559
          2500     625.00    1113.    -732.29950    -763.67349      31.37399     651.37770   64479.55858    1109.    -732.32001    -763.58434      31.26433
          2600     650.00    1129.    -732.30132    -764.12198      31.82067     531.32842   64479.55858    1109.    -732.31927    -763.59320      31.27393
          2700     675.00    1100.    -732.30350    -763.31403      31.01054     889.90735   64479.55858    1109.    -732.31866    -763.58690      31.26823
          2800     700.00    1126.    -732.30176    -764.05943      31.75767     485.48068   64479.55858    1109.    -732.31808    -763.58933      31.27125
          2900     725.00    1113.    -732.29951    -763.68585      31.38635     699.58846   64479.55858    1109.    -732.31744    -763.58693      31.26949
          3000     750.00    1110.    -732.29969    -763.60504      31.30534     391.04215   64479.55858    1109.    -732.31683    -763.59106      31.27423
          3100     775.00    1098.    -732.29681    -763.24671      30.94990     595.56500   64479.55858    1109.    -732.31625    -763.58608      31.26983
          3200     800.00    1113.    -732.30119    -763.68406      31.38286     470.33791   64479.55858    1109.    -732.31569    -763.58020      31.26450
          3300     825.00    1097.    -732.30190    -763.23293      30.93103     543.86806   64479.55858    1109.    -732.31523    -763.57612      31.26089
          3400     850.00    1107.    -732.29853    -763.51804      31.21951     684.64494   64479.55858    1109.    -732.31480    -763.57501      31.26020
          3500     875.00    1104.    -732.30224    -763.42871      31.12647     382.19777   64479.55858    1109.    -732.31437    -763.57021      31.25584
          3600     900.00    1116.    -732.29789    -763.77164      31.47375     506.70890   64479.55858    1109.    -732.31398    -763.57491      31.26093
          3700     925.00    1111.    -732.29852    -763.60854      31.31002     614.16532   64479.55858    1109.    -732.31357    -763.58192      31.26836
          3800     950.00    1107.    -732.29347    -763.49397      31.20049     557.27591   64479.55858    1109.    -732.31309    -763.58454      31.27145
          3900     975.00    1111.    -732.29099    -763.60152      31.31053     420.58384   64479.55858    1109.    -732.31256    -763.58827      31.27570
          4000    1000.00    1113.    -732.28858    -763.67873      31.39015     624.80535   64479.55858    1110.    -732.31201    -763.59453      31.28252
          4100    1025.00    1128.    -732.28755    -764.10163      31.81408     631.14362   64479.55858    1110.    -732.31143    -763.60361      31.29218
          4200    1050.00    1121.    -732.28352    -763.87580      31.59228     811.81956   64479.55858    1110.    -732.31080    -763.60307      31.29226
          4300    1075.00    1099.    -732.28449    -763.25887      30.97438     618.50338   64479.55858    1110.    -732.31017    -763.60358      31.29341
          4400    1100.00    1114.    -732.28799    -763.70494      31.41696     534.07615   64479.55858    1110.    -732.30961    -763.60455      31.29493
          4500    1125.00    1110.    -732.28593    -763.57120      31.28528     454.10767   64479.55858    1110.    -732.30912    -763.60681      31.29770
          4600    1150.00    1099.    -732.28632    -763.26500      30.97868     617.41829   64479.55858    1110.    -732.30866    -763.60502      31.29636
          4700    1175.00    1109.    -732.28950    -763.55341      31.26392     384.08444   64479.55858    1110.    -732.30822    -763.60178      31.29357
          4800    1200.00    1105.    -732.28535    -763.43830      31.15295     552.28243   64479.55858    1110.    -732.30777    -763.59750      31.28973
          4900    1225.00    1106.    -732.28585    -763.46771      31.18187     835.16559   64479.55858    1110.    -732.30733    -763.59130      31.28398
          5000    1250.00    1100.    -732.28836    -763.30669      31.01833     460.79532   64479.55858    1110.    -732.30692    -763.58771      31.28079
          5100    1275.00    1125.    -732.29013    -764.02050      31.73037     514.81332   64479.55858    1110.    -732.30657    -763.58779      31.28122
          5200    1300.00    1095.    -732.29070    -763.14996      30.85927     524.37358   64479.55858    1110.    -732.30624    -763.58742      31.28117
          5300    1325.00    1119.    -732.28958    -763.82634      31.53676     642.93282   64479.55858    1110.    -732.30596    -763.58977      31.28381
          5400    1350.00    1120.    -732.28961    -763.87640      31.58679     473.30065   64479.55858    1110.    -732.30565    -763.59023      31.28458
          5500    1375.00    1118.    -732.28956    -763.80860      31.51904     562.33281   64479.55858    1110.    -732.30538    -763.58960      31.28422
          5600    1400.00    1106.    -732.28739    -763.45832      31.17094     412.42092   64479.55858    1110.    -732.30508    -763.58738      31.28229
          5700    1425.00    1110.    -732.28729    -763.56980      31.28251     408.97767   64479.55858    1110.    -732.30476    -763.58681      31.28204
          5800    1450.00    1113.    -732.28829    -763.68052      31.39223     602.54481   64479.55858    1110.    -732.30446    -763.58914      31.28468
          5900    1475.00    1116.    -732.28961    -763.75645      31.46684     696.75501   64479.55858    1110.    -732.30422    -763.58885      31.28463
          6000    1500.00    1107.    -732.29124    -763.50873      31.21748     674.77140   64479.55858    1110.    -732.30399    -763.58756      31.28358
          6100    1525.00    1121.    -732.29053    -763.88239      31.59186     686.13498   64479.55858    1110.    -732.30376    -763.58445      31.28069
          6200    1550.00    1112.    -732.29087    -763.65291      31.36203     598.28711   64479.55858    1110.    -732.30355    -763.58491      31.28136
          6300    1575.00    1091.    -732.29211    -763.04770      30.75559     588.06529   64479.55858    1110.    -732.30336    -763.58405      31.28069
          6400    1600.00    1120.    -732.29136    -763.86924      31.57789     625.57696   64479.55858    1109.    -732.30317    -763.58248      31.27931
          6500    1625.00    1098.    -732.28914    -763.23952      30.95038     484.07545   64479.55858    1109.    -732.30298    -763.58019      31.27721
          6600    1650.00    1089.    -732.29315    -763.00879      30.71564     585.97719   64479.55858    1109.    -732.30280    -763.57643      31.27363
          6700    1675.00    1123.    -732.29444    -763.94873      31.65430     716.39141   64479.55858    1109.    -732.30265    -763.57742      31.27477
          6800    1700.00    1120.    -732.29253    -763.85949      31.56696     580.71443   64479.55858    1109.    -732.30250    -763.57729      31.27479
          6900    1725.00    1108.    -732.29235    -763.52140      31.22905     704.78290   64479.55858    1109.    -732.30234    -763.57636      31.27402
          7000    1750.00    1117.    -732.29151    -763.78003      31.48851     614.54501   64479.55858    1109.    -732.30222    -763.57434      31.27212
          7100    1775.00    1097.    -732.28955    -763.20536      30.91582     332.01548   64479.55858    1109.    -732.30205    -763.57215      31.27010
          7200    1800.00    1101.    -732.28893    -763.32359      31.03466     518.17318   64479.55858    1109.    -732.30188    -763.56733      31.26546
          7300    1825.00    1091.    -732.28863    -763.05543      30.76680     677.10121   64479.55858    1109.    -732.30170    -763.56465      31.26295
          7400    1850.00    1107.    -732.28896    -763.49093      31.20198     664.66141   64479.55858    1109.    -732.30153    -763.56328      31.26175
          7500    1875.00    1106.    -732.29261    -763.46679      31.17418     454.26809   64479.55858    1109.    -732.30138    -763.56372      31.26234
          7600    1900.00    1100.    -732.29062    -763.30250      31.01188     587.81418   64479.55858    1109.    -732.30122    -763.56404      31.26282
          7700    1925.00    1091.    -732.28922    -763.03893      30.74972     618.08550   64479.55858    1109.    -732.30107    -763.56230      31.26122
          7800    1950.00    1105.    -732.28908    -763.42796      31.13888     538.82093   64479.55858    1109.    -732.30093    -763.55958      31.25864
          7900    1975.00    1109.    -732.29379    -763.56127      31.26749     838.40534   64479.55858    1109.    -732.30081    -763.55597      31.25517
          8000    2000.00    1110.    -732.29142    -763.59915      31.30773     737.17169   64479.55858    1109.    -732.30072    -763.55733      31.25661
          8100    2025.00    1092.    -732.29200    -763.07857      30.78657     609.10903   64479.55858    1109.    -732.30061    -763.55568      31.25507
          8200    2050.00    1106.    -732.29066    -763.46605      31.17538     457.73824   64479.55858    1108.    -732.30050    -763.55084      31.25034
          8300    2075.00    1106.    -732.29017    -763.46725      31.17708     314.73959   64479.55858    1108.    -732.30037    -763.54948      31.24911
          8400    2100.00    1111.    -732.28927    -763.61390      31.32464     632.81418   64479.55858    1108.    -732.30025    -763.54871      31.24846
          8500    2125.00    1122.    -732.29201    -763.92868      31.63667     502.42645   64479.55858    1108.    -732.30013    -763.54941      31.24928
          8600    2150.00    1122.    -732.28896    -763.90738      31.61842     518.86411   64479.55858    1109.    -732.30002    -763.55259      31.25257
          8700    2175.00    1110.    -732.29073    -763.58587      31.29515     541.91022   64479.55858    1109.    -732.29991    -763.55291      31.25299
          8800    2200.00    1105.    -732.28834    -763.45075      31.16241     498.66016   64479.55858    1109.    -732.29980    -763.55419      31.25438
          8900    2225.00    1107.    -732.29079    -763.49487      31.20409     673.09593   64479.55858    1109.    -732.29971    -763.55526      31.25555
          9000    2250.00    1129.    -732.28891    -764.10615      31.81724     550.04974   64479.55858    1109.    -732.29960    -763.55571      31.25611
          9100    2275.00    1121.    -732.28763    -763.88270      31.59507     526.52988   64479.55858    1109.    -732.29947    -763.55870      31.25922
          9200    2300.00    1113.    -732.28712    -763.67813      31.39101     651.88883   64479.55858    1109.    -732.29935    -763.56064      31.26130
          9300    2325.00    1112.    -732.28386    -763.64794      31.36407     696.76549   64479.55858    1109.    -732.29920    -763.56002      31.26082
          9400    2350.00    1093.    -732.27594    -763.09484      30.81889     549.98913   64479.55858    1109.    -732.29900    -763.56251      31.26351
          9500    2375.00    1117.    -732.27321    -763.76783      31.49462     680.99810   64479.55858    1109.    -732.29876    -763.56166      31.26290
          9600    2400.00    1118.    -732.27526    -763.80427      31.52900     448.66086   64479.55858    1109.    -732.29852    -763.56287      31.26435
          9700    2425.00    1114.    -732.27689    -763.67818      31.40129     812.15124   64479.55858    1109.    -732.29827    -763.56450      31.26623
          9800    2450.00    1124.    -732.28100    -763.97306      31.69206     653.22503   64479.55858    1109.    -732.29807    -763.56573      31.26765
          9900    2475.00    1111.    -732.28246    -763.61505      31.33259     515.99514   64479.55858    1109.    -732.29791    -763.56759      31.26968
         10000    2500.00    1118.    -732.27908    -763.80684      31.52776     698.09674   64479.55858    1109.    -732.29774    -763.57026      31.27252
         10100    2525.00    1106.    -732.28173    -763.47519      31.19347     502.59902   64479.55858    1109.    -732.29756    -763.57111      31.27355
         10200    2550.00    1121.    -732.28447    -763.89444      31.60997     639.94827   64479.55858    1109.    -732.29742    -763.57165      31.27423
         10300    2575.00    1118.    -732.28303    -763.79926      31.51622     542.32378   64479.55858    1109.    -732.29729    -763.57231      31.27502
         10400    2600.00    1106.    -732.28420    -763.47623      31.19202     614.99289   64479.55858    1109.    -732.29716    -763.57555      31.27839
         10500    2625.00    1111.    -732.28334    -763.59352      31.31018     706.70912   64479.55858    1109.    -732.29705    -763.57590      31.27885
         10600    2650.00    1126.    -732.28307    -764.01421      31.73114     443.32602   64479.55858    1110.    -732.29691    -763.57967      31.28276
         10700    2675.00    1113.    -732.28551    -763.66119      31.37568     657.96864   64479.55858    1110.    -732.29680    -763.58104      31.28424
         10800    2700.00    1116.    -732.28618    -763.73648      31.45031     736.49380   64479.55858    1110.    -732.29670    -763.58242      31.28572
         10900    2725.00    1120.    -732.28190    -763.84973      31.56783     585.82354   64479.55858    1110.    -732.29658    -763.58557      31.28899
         11000    2750.00    1115.    -732.28070    -763.72863      31.44793     580.99825   64479.55858    1110.    -732.29644    -763.58732      31.29088
         11100    2775.00    1117.    -732.28173    -763.76355      31.48182     715.69015   64479.55858    1110.    -732.29631    -763.58769      31.29138
         11200    2800.00    1121.    -732.28249    -763.88426      31.60177     754.92454   64479.55858    1110.    -732.29617    -763.58879      31.29262
         11300    2825.00    1120.    -732.28457    -763.86716      31.58259     555.96541   64479.55858    1110.    -732.29607    -763.58934      31.29327
         11400    2850.00    1121.    -732.28149    -763.88788      31.60638     593.54639   64479.55858    1110.    -732.29596    -763.59220      31.29624
         11500    2875.00    1108.    -732.28168    -763.53176      31.25008     703.09704   64479.55858    1110.    -732.29585    -763.59557      31.29972
         11600    2900.00    1120.    -732.28195    -763.86853      31.58658     646.58950   64479.55858    1110.    -732.29574    -763.59609      31.30035
         11700    2925.00    1114.    -732.28086    -763.68212      31.40126     458.89500   64479.55858    1110.    -732.29563    -763.59643      31.30080
         11800    2950.00    1092.    -732.28405    -763.07299      30.78894     536.96961   64479.55858    1110.    -732.29554    -763.59621      31.30067
         11900    2975.00    1088.    -732.27813    -762.95771      30.67957     861.93977   64479.55858    1110.    -732.29540    -763.59417      31.29877
         12000    3000.00    1116.    -732.27634    -763.74335      31.46701     598.73402   64479.55858    1110.    -732.29527    -763.59180      31.29654
         12100    3025.00    1116.    -732.27600    -763.74577      31.46977     459.65050   64479.55858    1110.    -732.29510    -763.59224      31.29714
         12200    3050.00    1109.    -732.27109    -763.54611      31.27502     734.89709   64479.55858    1110.    -732.29493    -763.59282      31.29788
         12300    3075.00    1112.    -732.27080    -763.60756      31.33676     670.12676   64479.55858    1110.    -732.29474    -763.59378      31.29903
         12400    3100.00    1120.    -732.27253    -763.85038      31.57785     757.73354   64479.55858    1110.    -732.29456    -763.59584      31.30128
         12500    3125.00    1104.    -732.27123    -763.38835      31.11711     752.14304   64479.55858    1110.    -732.29437    -763.59601      31.30163
         12600    3150.00    1109.    -732.27003    -763.52690      31.25687     776.03976   64479.55858    1110.    -732.29419    -763.59552      31.30132
         12700    3175.00    1112.    -732.26976    -763.62186      31.35210     555.37066   64479.55858    1110.    -732.29400    -763.59577      31.30177
         12800    3200.00    1105.    -732.26957    -763.43588      31.16631     613.55611   64479.55858    1110.    -732.29381    -763.59403      31.30022
         12900    3225.00    1112.    -732.27106    -763.63416      31.36311     760.19103   64479.55858    1110.    -732.29363    -763.59388      31.30025
         13000    3250.00    1115.    -732.26954    -763.70923      31.43969     623.99463   64479.55858    1110.    -732.29345    -763.59536      31.30191
         13100    3275.00    1120.    -732.27387    -763.86074      31.58687     602.55221   64479.55858    1110.    -732.29328    -763.59575      31.30247
         13200    3300.00    1131.    -732.27172    -764.16883      31.89711     576.64339   64479.55858    1110.    -732.29312    -763.59704      31.30392
         13300    3325.00    1116.    -732.26813    -763.72473      31.45659     541.60581   64479.55858    1110.    -732.29294    -763.59923      31.30629
         13400    3350.00    1107.    -732.26850    -763.48646      31.21796     654.80390   64479.55858    1110.    -732.29275    -763.59953      31.30677
         13500    3375.00    1110.    -732.26810    -763.56962      31.30152     821.44342   64479.55858    1110.    -732.29257    -763.59932      31.30675
         13600    3400.00    1117.    -732.26601    -763.75679      31.49078     689.33934   64479.55858    1111.    -732.29239    -763.60048      31.30808
         13700    3425.00    1124.    -732.26772    -763.94692      31.67919     508.51571   64479.55858    1111.    -732.29221    -763.60277      31.31056
         13800    3450.00    1122.    -732.26915    -763.90283      31.63367     460.25310   64479.55858    1111.    -732.29204    -763.60407      31.31203
         13900    3475.00    1104.    -732.26730    -763.38854      31.12123     591.47646   64479.55858    1111.    -732.29187    -763.60443      31.31257
         14000    3500.00    1106.    -732.26949    -763.44659      31.17709     566.98881   64479.55858    1111.    -732.29170    -763.60423      31.31253
         14100    3525.00    1108.    -732.27390    -763.50009      31.22619     603.93295   64479.55858    1111.    -732.29156    -763.60411      31.31255
         14200    3550.00    1104.    -732.27322    -763.39957      31.12635     453.93442   64479.55858    1111.    -732.29144    -763.60351      31.31207
         14300    3575.00    1099.    -732.27133    -763.26202      30.99068     479.00696   64479.55858    1111.    -732.29130    -763.60302      31.31172
         14400    3600.00    1125.    -732.27042    -763.97733      31.70691     624.72479   64479.55858    1111.    -732.29116    -763.60141      31.31025
         14500    3625.00    1107.    -732.27097    -763.48394      31.21297     650.84612   64479.55858    1111.    -732.29102    -763.60198      31.31096
         14600    3650.00    1118.    -732.26935    -763.79733      31.52798     559.71027   64479.55858    1111.    -732.29088    -763.60330      31.31241
         14700    3675.00    1105.    -732.27123    -763.42290      31.15167     747.91677   64479.55858    1111.    -732.29074    -763.60450      31.31375
         14800    3700.00    1113.    -732.27009    -763.66047      31.39038     639.46729   64479.55858    1111.    -732.29061    -763.60486      31.31425
         14900    3725.00    1122.    -732.26854    -763.89646      31.62792     555.54225   64479.55858    1111.    -732.29047    -763.60591      31.31544
         15000    3750.00    1117.    -732.27135    -763.76535      31.49400     685.85076   64479.55858    1111.    -732.29033    -763.60630      31.31597
         15100    3775.00    1107.    -732.26989    -763.46639      31.19650     700.08691   64479.55858    1111.    -732.29020    -763.60619      31.31600
         15200    3800.00    1096.    -732.26894    -763.17741      30.90847     515.40404   64479.55858    1111.    -732.29006    -763.60573      31.31567
         15300    3825.00    1103.    -732.27034    -763.37274      31.10240     665.85310   64479.55858    1111.    -732.28993    -763.60430      31.31436
         15400    3850.00    1105.    -732.26985    -763.41037      31.14053     616.26345   64479.55858    1111.    -732.28981    -763.60376      31.31395
         15500    3875.00    1110.    -732.27254    -763.57926      31.30672     806.95142   64479.55858    1111.    -732.28969    -763.60350      31.31381
         15600    3900.00    1103.    -732.26816    -763.36079      31.09263     287.67758   64479.55858    1111.    -732.28958    -763.60240      31.31282
         15700    3925.00    1110.    -732.27069    -763.57168      31.30099     774.62929   64479.55858    1111.    -732.28946    -763.60223      31.31278
         15800    3950.00    1113.    -732.26825    -763.63442      31.36616     755.85047   64479.55858    1111.    -732.28933    -763.60245      31.31311
         15900    3975.00    1119.    -732.27022    -763.83141      31.56120     584.38168   64479.55858    1111.    -732.28920    -763.60389      31.31469
         16000    4000.00    1108.    -732.27150    -763.51305      31.24156     975.82548   64479.55858    1111.    -732.28909    -763.60409      31.31499
         16100    4025.00    1105.    -732.27458    -763.43715      31.16256     756.82289   64479.55858    1111.    -732.28900    -763.60363      31.31463
         16200    4050.00    1123.    -732.27639    -763.93373      31.65734     796.46185   64479.55858    1111.    -732.28892    -763.60304      31.31412
         16300    4075.00    1102.    -732.27533    -763.35147      31.07614     759.26015   64479.55858    1111.    -732.28883    -763.60334      31.31450
         16400    4100.00    1112.    -732.27520    -763.61592      31.34073     833.43547   64479.55858    1111.    -732.28875    -763.60247      31.31371
         16500    4125.00    1113.    -732.27252    -763.63809      31.36557     545.66335   64479.55858    1111.    -732.28867    -763.60226      31.31359
         16600    4150.00    1114.    -732.27146    -763.67982      31.40835     611.25717   64479.55858    1111.    -732.28857    -763.60330      31.31474
         16700    4175.00    1105.    -732.27157    -763.43844      31.16688     422.46666   64479.55858    1111.    -732.28847    -763.60379      31.31532
         16800    4200.00    1109.    -732.27089    -763.52285      31.25196     750.10713   64479.55858    1111.    -732.28837    -763.60445      31.31608
         16900    4225.00    1107.    -732.26951    -763.48481      31.21530     491.09762   64479.55858    1111.    -732.28826    -763.60511      31.31684
         17000    4250.00    1114.    -732.26769    -763.66678      31.39909     561.76610   64479.55858    1111.    -732.28815    -763.60621      31.31806
         17100    4275.00    1118.    -732.26713    -763.78675      31.51962     736.23894   64479.55858    1111.    -732.28803    -763.60588      31.31785
         17200    4300.00    1112.    -732.26777    -763.62419      31.35641     786.30887   64479.55858    1111.    -732.28791    -763.60617      31.31826
         17300    4325.00    1122.    -732.26714    -763.90229      31.63515     792.32160   64479.55858    1111.    -732.28779    -763.60801      31.32022
         17400    4350.00    1114.    -732.26516    -763.68509      31.41992     585.57071   64479.55858    1111.    -732.28766    -763.60855      31.32088
         17500    4375.00    1119.    -732.26565    -763.81234      31.54669     815.77316   64479.55858    1111.    -732.28753    -763.60885      31.32132
         17600    4400.00    1128.    -732.26385    -764.05981      31.79595     744.47953   64479.55858    1111.    -732.28741    -763.61083      31.32342
         17700    4425.00    1094.    -732.26849    -763.11569      30.84720     598.06956   64479.55858    1111.    -732.28729    -763.60976      31.32247
         17800    4450.00    1125.    -732.26868    -763.99820      31.72951     682.00494   64479.55858    1111.    -732.28719    -763.60934      31.32215
         17900    4475.00    1124.    -732.26671    -763.96311      31.69640     498.31742   64479.55858    1111.    -732.28708    -763.61008      31.32301
         18000    4500.00    1116.    -732.26500    -763.73525      31.47026     616.32216   64479.55858    1111.    -732.28696    -763.61043      31.32347
         18100    4525.00    1112.    -732.26639    -763.60259      31.33621     503.35819   64479.55858    1111.    -732.28685    -763.61068      31.32382
         18200    4550.00    1111.    -732.26700    -763.60044      31.33344     621.00078   64479.55858    1111.    -732.28675    -763.61170      31.32495
         18300    4575.00    1108.    -732.26955    -763.50835      31.23881     717.89122   64479.55858    1111.    -732.28664    -763.61145      31.32480
         18400    4600.00    1121.    -732.26512    -763.86343      31.59831     729.70826   64479.55858    1111.    -732.28654    -763.61121      31.32467
         18500    4625.00    1114.    -732.26496    -763.68379      31.41883     598.16464   64479.55858    1111.    -732.28642    -763.61285      31.32643
         18600    4650.00    1112.    -732.26385    -763.61392      31.35007     565.79090   64479.55858    1111.    -732.28631    -763.61348      31.32717
         18700    4675.00    1122.    -732.26578    -763.91119      31.64541     622.90973   64479.55858    1111.    -732.28619    -763.61332      31.32714
         18800    4700.00    1121.    -732.26287    -763.87983      31.61696     589.57589   64479.55858    1111.    -732.28607    -763.61492      31.32885
         18900    4725.00    1106.    -732.26307    -763.43307      31.17000     471.41583   64479.55858    1111.    -732.28595    -763.61594      31.33000
         19000    4750.00    1113.    -732.26439    -763.63640      31.37201     458.52926   64479.55858    1111.    -732.28583    -763.61526      31.32943
         19100    4775.00    1107.    -732.26341    -763.47133      31.20792     576.18640   64479.55858    1111.    -732.28571    -763.61447      31.32876
         19200    4800.00    1117.    -732.26373    -763.74469      31.48096     697.94114   64479.55858    1111.    -732.28560    -763.61591      31.33031
         19300    4825.00    1116.    -732.26373    -763.71729      31.45356     510.72324   64479.55858    1111.    -732.28549    -763.61699      31.33150
         19400    4850.00    1127.    -732.26315    -764.03631      31.77316     829.98615   64479.55858    1111.    -732.28538    -763.61870      31.33332
         19500    4875.00    1123.    -732.26191    -763.91613      31.65422     835.69784   64479.55858    1111.    -732.28527    -763.62048      31.33521
         19600    4900.00    1134.    -732.26343    -764.24265      31.97923     579.12654   64479.55858    1112.    -732.28515    -763.62204      31.33688
         19700    4925.00    1108.    -732.26464    -763.51544      31.25080     710.05030   64479.55858    1112.    -732.28505    -763.62313      31.33808
         19800    4950.00    1116.    -732.26213    -763.72896      31.46683     293.37807   64479.55858    1112.    -732.28494    -763.62406      31.33912
         19900    4975.00    1119.    -732.26120    -763.80966      31.54846     675.59774   64479.55858    1112.    -732.28483    -763.62620      31.34138
         20000    5000.00    1130.    -732.26165    -764.11601      31.85436     655.21476   64479.55858    1112.    -732.28471    -763.62708      31.34237
         20100    5025.00    1129.    -732.26313    -764.09322      31.83009     732.71944   64479.55858    1112.    -732.28460    -763.62761      31.34301
         20200    5050.00    1107.    -732.26065    -763.46400      31.20335     798.07169   64479.55858    1112.    -732.28449    -763.62735      31.34286
         20300    5075.00    1113.    -732.26321    -763.63491      31.37171     711.30229   64479.55858    1112.    -732.28437    -763.62680      31.34243
         20400    5100.00    1115.    -732.26272    -763.69283      31.43011     488.10708   64479.55858    1112.    -732.28427    -763.62605      31.34178
         20500    5125.00    1098.    -732.25977    -763.21511      30.95534     577.32389   64479.55858    1112.    -732.28416    -763.62589      31.34173
         20600    5150.00    1112.    -732.26223    -763.62101      31.35878     713.60646   64479.55858    1112.    -732.28405    -763.62467      31.34062
         20700    5175.00    1105.    -732.26402    -763.42997      31.16595     735.84569   64479.55858    1112.    -732.28395    -763.62493      31.34099
         20800    5200.00    1121.    -732.26011    -763.87069      31.61058     894.99543   64479.55858    1112.    -732.28384    -763.62513      31.34129
         20900    5225.00    1126.    -732.26483    -764.01953      31.75470     652.96393   64479.55858    1112.    -732.28374    -763.62649      31.34275
         21000    5250.00    1115.    -732.26332    -763.69414      31.43083     705.95501   64479.55858    1112.    -732.28365    -763.62729      31.34364
         21100    5275.00    1127.    -732.26629    -764.04834      31.78205     540.25404   64479.55858    1112.    -732.28356    -763.62850      31.34494
         21200    5300.00    1110.    -732.26561    -763.54840      31.28279     409.51479   64479.55858    1112.    -732.28348    -763.62885      31.34537
         21300    5325.00    1115.    -732.26602    -763.69903      31.43300     449.09243   64479.55858    1112.    -732.28339    -763.62951      31.34611
         21400    5350.00    1110.    -732.26447    -763.55317      31.28870     202.97827   64479.55858    1112.    -732.28331    -763.63012      31.34681
         21500    5375.00    1121.    -732.26530    -763.86089      31.59558     587.23995   64479.55858    1112.    -732.28323    -763.63100      31.34777
         21600    5400.00    1109.    -732.26308    -763.52266      31.25958     828.57518   64479.55858    1112.    -732.28314    -763.63130      31.34816
         21700    5425.00    1110.    -732.26263    -763.56056      31.29793     845.24760   64479.55858    1112.    -732.28305    -763.63158      31.34853
         21800    5450.00    1122.    -732.26481    -763.90719      31.64238     795.32829   64479.55858    1112.    -732.28296    -763.63222      31.34926
         21900    5475.00    1119.    -732.26222    -763.80716      31.54494     546.67672   64479.55858    1112.    -732.28287    -763.63368      31.35081
         22000    5500.00    1114.    -732.26234    -763.68269      31.42035     609.81300   64479.55858    1112.    -732.28278    -763.63366      31.35087
         22100    5525.00    1124.    -732.26329    -763.95465      31.69136     381.02021   64479.55858    1112.    -732.28269    -763.63480      31.35211
         22200    5550.00    1110.    -732.26297    -763.57067      31.30770     598.75912   64479.55858    1112.    -732.28260    -763.63470      31.35210
         22300    5575.00    1127.    -732.26311    -764.02777      31.76466     779.27356   64479.55858    1112.    -732.28252    -763.63595      31.35344
         22400    5600.00    1132.    -732.26551    -764.16724      31.90173     710.71207   64479.55858    1112.    -732.28243    -763.63791      31.35547
         22500    5625.00    1108.    -732.26575    -763.50137      31.23562     614.61365   64479.55858    1112.    -732.28235    -763.63804      31.35568
         22600    5650.00    1115.    -732.26462    -763.68554      31.42093     653.30739   64479.55858    1112.    -732.28228    -763.63764      31.35537
         22700    5675.00    1105.    -732.26346    -763.42369      31.16023     505.29221   64479.55858    1112.    -732.28220    -763.63749      31.35529
         22800    5700.00    1112.    -732.26486    -763.60353      31.33867     428.57302   64479.55858    1112.    -732.28212    -763.63764      31.35552
         22900    5725.00    1099.    -732.26521    -763.25467      30.98946     707.09907   64479.55858    1112.    -732.28204    -763.63698      31.35494
         23000    5750.00    1113.    -732.26701    -763.64240      31.37539     529.53692   64479.55858    1112.    -732.28197    -763.63606      31.35409
         23100    5775.00    1108.    -732.26463    -763.50824      31.24361     420.02532   64479.55858    1112.    -732.28190    -763.63641      31.35451
         23200    5800.00    1112.    -732.26465    -763.61516      31.35051     716.77273   64479.55858    1112.    -732.28182    -763.63679      31.35496
         23300    5825.00    1120.    -732.26304    -763.84397      31.58093     696.68642   64479.55858    1112.    -732.28174    -763.63735      31.35561
         23400    5850.00    1129.    -732.26350    -764.08060      31.81710     898.84114   64479.55858    1112.    -732.28167    -763.63758      31.35591
         23500    5875.00    1120.    -732.26225    -763.84172      31.57947     551.47424   64479.55858    1112.    -732.28159    -763.63822      31.35663
         23600    5900.00    1117.    -732.26409    -763.76617      31.50208     516.10322   64479.55858    1112.    -732.28151    -763.63904      31.35753
         23700    5925.00    1124.    -732.26246    -763.96175      31.69929     515.37447   64479.55858    1112.    -732.28143    -763.63917      31.35774
         23800    5950.00    1108.    -732.26336    -763.49784      31.23448     521.01938   64479.55858    1112.    -732.28135    -763.63943      31.35807
         23900    5975.00    1112.    -732.26489    -763.60506      31.34017     587.43686   64479.55858    1112.    -732.28128    -763.63922      31.35793
         24000    6000.00    1109.    -732.26297    -763.53756      31.27459     402.38290   64479.55858    1112.    -732.28121    -763.63903      31.35782
         24100    6025.00    1116.    -732.26343    -763.73858      31.47515     580.56321   64479.55858    1112.    -732.28114    -763.63978      31.35864
         24200    6050.00    1111.    -732.26290    -763.57994      31.31704     544.93185   64479.55858    1112.    -732.28107    -763.64006      31.35899
         24300    6075.00    1128.    -732.26418    -764.06909      31.80491     665.79810   64479.55858    1112.    -732.28100    -763.64086      31.35986
         24400    6100.00    1139.    -732.26443    -764.36403      32.09960     494.66952   64479.55858    1112.    -732.28092    -763.64244      31.36152
         24500    6125.00    1110.    -732.26450    -763.57155      31.30705     499.69331   64479.55858    1112.    -732.28085    -763.64284      31.36199
         24600    6150.00    1110.    -732.26542    -763.54846      31.28304     679.72904   64479.55858    1112.    -732.28079    -763.64289      31.36210
         24700    6175.00    1117.    -732.26289    -763.75178      31.48889     652.67394   64479.55858    1112.    -732.28072    -763.64248      31.36176
         24800    6200.00    1122.    -732.26614    -763.88858      31.62244     702.63665   64479.55858    1112.    -732.28066    -763.64308      31.36242
         24900    6225.00    1115.    -732.26289    -763.68992      31.42703     890.75371   64479.55858    1112.    -732.28059    -763.64343      31.36283
         25000    6250.00    1120.    -732.25961    -763.82326      31.56365     874.10411   64479.55858    1112.    -732.28052    -763.64414      31.36362
         25100    6275.00    1117.    -732.26228    -763.74992      31.48763     496.40645   64479.55858    1112.    -732.28044    -763.64426      31.36383
         25200    6300.00    1119.    -732.26117    -763.81755      31.55637     535.60842   64479.55858    1112.    -732.28036    -763.64385      31.36349
         25300    6325.00    1112.    -732.26151    -763.61681      31.35530     706.62468   64479.55858    1112.    -732.28028    -763.64396      31.36368
         25400    6350.00    1101.    -732.26223    -763.28855      31.02632     772.14331   64479.55858    1112.    -732.28021    -763.64426      31.36406
         25500    6375.00    1129.    -732.26159    -764.08509      31.82351     618.29866   64479.55858    1113.    -732.28014    -763.64453      31.36439
         25600    6400.00    1127.    -732.26137    -764.02993      31.76856     543.95983   64479.55858    1113.    -732.28006    -763.64656      31.36650
         25700    6425.00    1136.    -732.26213    -764.28666      32.02453     556.96622   64479.55858    1113.    -732.27998    -763.64787      31.36788
         25800    6450.00    1131.    -732.26141    -764.14208      31.88067     747.56777   64479.55858    1113.    -732.27991    -763.64967      31.36976
         25900    6475.00    1141.    -732.25982    -764.43551      32.17569     653.04807   64479.55858    1113.    -732.27983    -763.65121      31.37138
         26000    6500.00    1127.    -732.25768    -764.04372      31.78604     490.39255   64479.55858    1113.    -732.27975    -763.65261      31.37286
         26100    6525.00    1123.    -732.25800    -763.91952      31.66152     723.58779   64479.55858    1113.    -732.27966    -763.65313      31.37346
         26200    6550.00    1126.    -732.25954    -764.01614      31.75659     600.94388   64479.55858    1113.    -732.27958    -763.65359      31.37402
         26300    6575.00    1131.    -732.25652    -764.13858      31.88206     627.37930   64479.55858    1113.    -732.27949    -763.65468      31.37518
         26400    6600.00    1132.    -732.25630    -764.17106      31.91475     574.55362   64479.55858    1113.    -732.27941    -763.65539      31.37599
         26500    6625.00    1107.    -732.25552    -763.46790      31.21238     646.55872   64479.55858    1113.    -732.27932    -763.65576      31.37645
         26600    6650.00    1112.    -732.25639    -763.61978      31.36338     673.43879   64479.55858    1113.    -732.27923    -763.65656      31.37733
         26700    6675.00    1112.    -732.25604    -763.60594      31.34990     286.56346   64479.55858    1113.    -732.27915    -763.65613      31.37699
         26800    6700.00    1110.    -732.25445    -763.53632      31.28187     423.75453   64479.55858    1113.    -732.27906    -763.65604      31.37698
         26900    6725.00    1105.    -732.25338    -763.41725      31.16387     547.69517   64479.55858    1113.    -732.27896    -763.65614      31.37718
         27000    6750.00    1112.    -732.25620    -763.61974      31.36355     487.19709   64479.55858    1113.    -732.27888    -763.65527      31.37639
         27100    6775.00    1124.    -732.25540    -763.93367      31.67827     399.39064   64479.55858    1113.    -732.27879    -763.65558      31.37679
         27200    6800.00    1106.    -732.25346    -763.42483      31.17136     513.44742   64479.55858    1113.    -732.27870    -763.65645      31.37775
         27300    6825.00    1109.    -732.25317    -763.52631      31.27315     738.59669   64479.55858    1113.    -732.27861    -763.65630      31.37770
         27400    6850.00    1117.    -732.25343    -763.75677      31.50334     651.90189   64479.55858    1113.    -732.27851    -763.65643      31.37791
         27500    6875.00    1114.    -732.25195    -763.66469      31.41274     610.82969   64479.55858    1113.    -732.27842    -763.65605      31.37762
         27600    6900.00    1115.    -732.25541    -763.68363      31.42822     553.32746   64479.55858    1113.    -732.27833    -763.65618      31.37785
         27700    6925.00    1113.    -732.25235    -763.62143      31.36907     691.58711   64479.55858    1113.    -732.27823    -763.65630      31.37807
         27800    6950.00    1113.    -732.25231    -763.62836      31.37605     605.84814   64479.55858    1113.    -732.27814    -763.65682      31.37868
         27900    6975.00    1121.    -732.25385    -763.86597      31.61212     610.77892   64479.55858    1113.    -732.27805    -763.65740      31.37935
         28000    7000.00    1104.    -732.25601    -763.37133      31.11532     795.53581   64479.55858    1113.    -732.27797    -763.65752      31.37955
         28100    7025.00    1105.    -732.25341    -763.40445      31.15104     896.69515   64479.55858    1113.    -732.27789    -763.65688      31.37899
         28200    7050.00    1111.    -732.25596    -763.59058      31.33463     654.88382   64479.55858    1113.    -732.27780    -763.65625      31.37845
         28300    7075.00    1124.    -732.25445    -763.95574      31.70129     709.26669   64479.55858    1113.    -732.27772    -763.65575      31.37804
         28400    7100.00    1114.    -732.25375    -763.65917      31.40542     581.85841   64479.55858    1113.    -732.27763    -763.65671      31.37908
         28500    7125.00    1121.    -732.25238    -763.85626      31.60388     463.63551   64479.55858    1113.    -732.27755    -763.65703      31.37949
         28600    7150.00    1115.    -732.25229    -763.69976      31.44747     492.67784   64479.55858    1113.    -732.27746    -763.65763      31.38017
         28700    7175.00    1129.    -732.25074    -764.06746      31.81671     414.45836   64479.55858    1113.    -732.27737    -763.65809      31.38072
         28800    7200.00    1124.    -732.25668    -763.93642      31.67974     656.83525   64479.55858    1113.    -732.27729    -763.65873      31.38144
         28900    7225.00    1120.    -732.25587    -763.84545      31.58958     688.79316   64479.55858    1113.    -732.27721    -763.65957      31.38236
         29000    7250.00    1133.    -732.25601    -764.19597      31.93995     575.46877   64479.55858    1113.    -732.27715    -763.66054      31.38340
         29100    7275.00    1123.    -732.25466    -763.91044      31.65578     655.87396   64479.55858    1113.    -732.27707    -763.66192      31.38485
         29200    7300.00    1109.    -732.25529    -763.51755      31.26226     558.22871   64479.55858    1113.    -732.27700    -763.66163      31.38463
         29300    7325.00    1124.    -732.25484    -763.94905      31.69421     410.18378   64479.55858    1113.    -732.27692    -763.66232      31.38540
         29400    7350.00    1118.    -732.25704    -763.77773      31.52069     493.61295   64479.55858    1113.    -732.27685    -763.66215      31.38530
         29500    7375.00    1111.    -732.25900    -763.57062      31.31162     486.04909   64479.55858    1113.    -732.27678    -763.66301      31.38622
         29600    7400.00    1117.    -732.25949    -763.74789      31.48839     513.80984   64479.55858    1113.    -732.27672    -763.66366      31.38694
         29700    7425.00    1109.    -732.25685    -763.53039      31.27354     545.87525   64479.55858    1113.    -732.27666    -763.66323      31.38657
         29800    7450.00    1109.    -732.25773    -763.51262      31.25489     720.66716   64479.55858    1113.    -732.27659    -763.66328      31.38669
         29900    7475.00    1119.    -732.25550    -763.81434      31.55884     748.74260   64479.55858    1113.    -732.27653    -763.66345      31.38693
         30000    7500.00    1114.    -732.25722    -763.67549      31.41827     594.97258   64479.55858    1113.    -732.27646    -763.66414      31.38768
 
                                     Min                 Max                Mean              StdDev
 
    Potential Energy       -769.18469683       -741.44274437       -763.66414144          0.48354095
      Kinetic Energy          9.16258660         36.84592722         31.38768080          0.48566073
        Total Energy       -732.40209451       -732.24959789       -732.27646064          0.01856777
         Temperature        325.00000000       1306.93731740       1113.33149795         17.22654782

AMS application finished. Exiting.
NORMAL TERMINATION
     Total cpu time:   20000.93
  Total system time:      87.27
 Total elapsed time:   20912.75
