LAMMPS data file. CGCMM style. atom_style molecular generated by VMD/TopoTools v1.7 on Tue Dec 22 14:15:02 EST 2020
 5935 atoms
 3973 bonds
 2042 angles
 104 dihedrals
 2 impropers
 5 atom types
 1 bond types
 1 angle types
 1 dihedral types
 1 improper types
 27.934003 67.439004  xlo xhi
 21.436001 61.334000  ylo yhi
 32.561001 73.470001  zlo zhi

# Pair Coeffs
#
# 1  C
# 2  H
# 3  N
# 4  O
# 5  P

# Bond Coeffs
#
# 1  

# Angle Coeffs
#
# 1  unknown

# Dihedral Coeffs
#
# 1  unknown

# Improper Coeffs
#
# 1  unknown

 Masses

 1 12.011000 # C
 2 1.008000 # H
 3 14.007000 # N
 4 15.999400 # O
 5 30.973801 # P

 Atoms # molecular

1 1 1 46.520000 38.988998 53.363998 # C ATP
2 1 2 45.665001 38.327000 53.639000 # H ATP
3 1 4 46.785000 38.908001 51.948002 # O ATP
4 1 1 48.132999 38.409000 51.721001 # C ATP
5 1 2 48.202999 37.473999 51.117001 # H ATP
6 1 1 50.231998 40.470001 49.664001 # C ATP
7 1 3 49.424999 41.488998 50.165001 # N ATP
8 1 1 48.616001 40.841999 50.945000 # C ATP
9 1 2 47.835999 41.389999 51.499001 # H ATP
10 1 3 48.846001 39.464001 50.986000 # N ATP
11 1 3 51.911999 39.273998 48.446999 # N ATP
12 1 1 51.493000 38.151001 49.028999 # C ATP
13 1 2 52.035999 37.229000 48.758999 # H ATP
14 1 3 50.491001 38.015999 49.900002 # N ATP
15 1 1 49.891998 39.252998 50.171001 # C ATP
16 1 1 51.307999 40.466000 48.730999 # C ATP
17 1 3 51.721001 41.568001 48.129002 # N ATP
18 1 2 52.480000 41.507999 47.466000 # H ATP
19 1 2 51.268002 42.444000 48.346001 # H ATP
20 1 1 48.719002 38.116001 53.139000 # C ATP
21 1 2 49.636002 38.514000 53.174000 # H ATP
22 1 4 48.632000 36.737000 53.424999 # O ATP
23 1 2 49.485001 36.431999 53.716000 # H ATP
24 1 1 47.807999 38.874001 54.112000 # C ATP
25 1 2 48.234001 39.869999 54.375000 # H ATP
26 1 4 47.713001 38.356998 55.423000 # O ATP
27 1 2 47.042999 37.664001 55.377998 # H ATP
28 1 1 46.609001 40.422001 53.542000 # C ATP
29 1 2 46.495998 40.228001 54.515999 # H ATP
30 1 2 47.525002 40.334000 53.150002 # H ATP
31 1 4 46.172001 41.568001 53.301998 # O ATP
32 1 5 45.228001 42.668999 53.257000 # P ATP
33 1 4 46.380001 43.396000 52.787998 # O ATP
34 1 4 44.182999 42.189999 52.351002 # O ATP
35 1 4 44.917000 42.716000 54.789001 # O ATP
36 1 5 43.910999 43.740002 55.654999 # P ATP
37 1 4 42.974998 42.722000 55.986000 # O ATP
38 1 4 43.603001 44.766998 54.678001 # O ATP
39 1 4 45.041000 44.014999 56.737999 # O ATP
40 1 5 46.106998 45.181999 56.950001 # P ATP
41 1 4 45.778999 46.330002 56.051998 # O ATP
42 1 4 47.382000 44.497002 56.625999 # O ATP
43 1 4 45.972000 45.529999 58.375000 # O ATP
44 2 4 31.643000 31.514000 48.369999 # O TIP3
45 2 2 31.198999 31.882999 47.567001 # H TIP3
46 2 2 31.066999 31.811001 49.092999 # H TIP3
47 3 4 34.007999 26.308001 53.356998 # O TIP3
48 3 2 34.053001 26.656000 54.264000 # H TIP3
49 3 2 34.567001 25.520000 53.426998 # H TIP3
50 4 4 32.543999 25.392000 62.353001 # O TIP3
51 4 2 31.934000 24.591999 62.445999 # H TIP3
52 4 2 31.969999 26.087000 61.888000 # H TIP3
53 5 4 28.950001 35.438999 71.032997 # O TIP3
54 5 2 29.112000 34.695000 70.431999 # H TIP3
55 5 2 28.594000 34.971001 71.825996 # H TIP3
56 6 4 33.160999 38.127998 44.537998 # O TIP3
57 6 2 34.057999 38.410999 44.282001 # H TIP3
58 6 2 33.312000 37.264000 44.956001 # H TIP3
59 7 4 42.411999 27.226000 63.021999 # O TIP3
60 7 2 41.499001 26.750999 62.998001 # H TIP3
61 7 2 42.959000 26.545000 63.438999 # H TIP3
62 8 4 36.299000 35.243000 53.798000 # O TIP3
63 8 2 36.608002 34.779999 54.577999 # H TIP3
64 8 2 36.480999 34.548000 53.111000 # H TIP3
65 9 4 39.437000 47.458000 63.839001 # O TIP3
66 9 2 39.361000 48.126999 64.542000 # H TIP3
67 9 2 38.594002 47.512001 63.402000 # H TIP3
68 10 4 31.761000 37.750000 33.776001 # O TIP3
69 10 2 31.756001 36.820000 33.661999 # H TIP3
70 10 2 32.502998 38.012001 33.247002 # H TIP3
71 11 4 34.180000 28.423000 50.908001 # O TIP3
72 11 2 34.757000 28.778999 51.618000 # H TIP3
73 11 2 33.284000 28.493999 51.265999 # H TIP3
74 12 4 44.101002 36.132999 37.042999 # O TIP3
75 12 2 44.044998 35.703999 36.192001 # H TIP3
76 12 2 44.779999 36.886002 36.910999 # H TIP3
77 13 4 30.725000 30.275999 42.095001 # O TIP3
78 13 2 30.084999 29.722000 42.464001 # H TIP3
79 13 2 30.139000 30.677000 41.428001 # H TIP3
80 14 4 31.910000 37.626999 54.575001 # O TIP3
81 14 2 32.845001 37.466000 54.451000 # H TIP3
82 14 2 31.629999 36.799000 55.047001 # H TIP3
83 15 4 30.966000 32.594002 60.326000 # O TIP3
84 15 2 31.569000 32.400002 59.595001 # H TIP3
85 15 2 30.389000 33.207001 59.896000 # H TIP3
86 16 4 32.215000 28.469000 59.547001 # O TIP3
87 16 2 32.631001 29.263000 59.124001 # H TIP3
88 16 2 31.761000 28.860001 60.278000 # H TIP3
89 17 4 35.146999 28.431000 71.046997 # O TIP3
90 17 2 35.014999 28.982000 71.792999 # H TIP3
91 17 2 34.219002 28.188000 70.728996 # H TIP3
92 18 4 38.648998 30.341000 37.452000 # O TIP3
93 18 2 38.973000 30.302999 38.397999 # H TIP3
94 18 2 37.723000 30.702000 37.541000 # H TIP3
95 19 4 27.976999 27.099001 47.056999 # O TIP3
96 19 2 28.458000 27.422001 46.296001 # H TIP3
97 19 2 28.583000 27.212999 47.813000 # H TIP3
98 20 4 37.856998 30.587999 47.382000 # O TIP3
99 20 2 37.549000 31.184999 48.063000 # H TIP3
100 20 2 37.995998 29.695999 47.755001 # H TIP3
101 21 4 35.938999 27.539000 61.918999 # O TIP3
102 21 2 36.216999 26.638000 62.064999 # H TIP3
103 21 2 36.396999 27.976999 62.702999 # H TIP3
104 22 4 52.152000 35.702999 70.592003 # O TIP3
105 22 2 51.508999 35.374001 69.925003 # H TIP3
106 22 2 53.036999 35.514000 70.148003 # H TIP3
107 23 4 34.291000 26.719999 59.960999 # O TIP3
108 23 2 34.615002 27.063000 60.828999 # H TIP3
109 23 2 33.537998 27.284000 59.745998 # H TIP3
110 24 4 40.863998 51.091999 41.553001 # O TIP3
111 24 2 40.553001 51.228001 42.441002 # H TIP3
112 24 2 41.738998 50.769001 41.678001 # H TIP3
113 25 4 29.636000 28.113001 34.409000 # O TIP3
114 25 2 29.917999 27.171000 34.446999 # H TIP3
115 25 2 28.753000 28.031000 33.949001 # H TIP3
116 26 4 32.796001 42.035000 43.705002 # O TIP3
117 26 2 33.441002 42.214001 44.429001 # H TIP3
118 26 2 33.359001 42.346001 42.922001 # H TIP3
119 27 4 42.997002 42.286999 45.297001 # O TIP3
120 27 2 42.196999 42.241001 45.757999 # H TIP3
121 27 2 42.647999 42.488998 44.383999 # H TIP3
122 28 4 29.313999 25.214001 55.279999 # O TIP3
123 28 2 28.813999 24.857000 54.553001 # H TIP3
124 28 2 29.750000 24.509001 55.604000 # H TIP3
125 29 4 28.459999 36.569000 54.942001 # O TIP3
126 29 2 28.618999 36.856998 55.814999 # H TIP3
127 29 2 28.287001 37.393002 54.441002 # H TIP3
128 30 4 41.118000 35.227001 65.945000 # O TIP3
129 30 2 40.905998 34.985001 66.821999 # H TIP3
130 30 2 41.498001 36.094002 65.985001 # H TIP3
131 31 4 40.396000 42.027000 63.808998 # O TIP3
132 31 2 40.305000 42.053001 64.768997 # H TIP3
133 31 2 40.256001 42.958000 63.528999 # H TIP3
134 32 4 33.583000 45.349998 45.424999 # O TIP3
135 32 2 32.814999 45.054001 45.011002 # H TIP3
136 32 2 34.012001 45.768002 44.674000 # H TIP3
137 33 4 38.401001 29.035999 34.869999 # O TIP3
138 33 2 38.736000 29.833000 34.459999 # H TIP3
139 33 2 38.223000 29.320999 35.773998 # H TIP3
140 34 4 36.543999 47.116001 44.676998 # O TIP3
141 34 2 37.098000 46.973999 45.480999 # H TIP3
142 34 2 36.779999 48.027000 44.393002 # H TIP3
143 35 4 32.243999 44.183998 48.730999 # O TIP3
144 35 2 32.124001 45.112000 48.354000 # H TIP3
145 35 2 33.035999 44.228001 49.242001 # H TIP3
146 36 4 31.573999 35.120998 56.049000 # O TIP3
147 36 2 31.405001 34.307999 56.528000 # H TIP3
148 36 2 32.535999 35.201000 56.126999 # H TIP3
149 37 4 47.926998 23.393000 58.630001 # O TIP3
150 37 2 48.389000 22.511000 58.544998 # H TIP3
151 37 2 48.641998 24.084999 58.479000 # H TIP3
152 38 4 50.547001 27.674000 35.944000 # O TIP3
153 38 2 49.680000 27.277000 36.296001 # H TIP3
154 38 2 50.925999 27.091000 35.324001 # H TIP3
155 39 4 35.757000 49.778000 53.106998 # O TIP3
156 39 2 36.630001 49.666000 53.580002 # H TIP3
157 39 2 35.644001 50.727001 52.910000 # H TIP3
158 40 4 38.901001 26.797001 33.484001 # O TIP3
159 40 2 39.112999 26.201000 34.220001 # H TIP3
160 40 2 38.632000 27.643999 33.959000 # H TIP3
161 41 4 66.654999 46.077000 58.222000 # O TIP3
162 41 2 66.596001 46.816002 57.601002 # H TIP3
163 41 2 67.035004 46.405998 59.046001 # H TIP3
164 42 4 36.622002 25.746000 51.743999 # O TIP3
165 42 2 35.938999 25.042999 51.792000 # H TIP3
166 42 2 36.018002 26.496000 51.618999 # H TIP3
167 43 4 36.355999 38.750999 55.741001 # O TIP3
168 43 2 35.491001 38.771999 56.160999 # H TIP3
169 43 2 36.405998 39.695000 55.474998 # H TIP3
170 44 4 32.317001 32.820000 57.737000 # O TIP3
171 44 2 32.817001 32.129002 58.144001 # H TIP3
172 44 2 32.877998 33.580002 58.043999 # H TIP3
173 45 4 29.645000 37.106998 61.632000 # O TIP3
174 45 2 30.094999 37.382000 62.439999 # H TIP3
175 45 2 28.738001 36.949001 61.933998 # H TIP3
176 46 4 44.445000 49.521000 34.646999 # O TIP3
177 46 2 44.828999 48.661999 34.965000 # H TIP3
178 46 2 43.507999 49.287998 34.554001 # H TIP3
179 47 4 36.351002 54.346001 41.202000 # O TIP3
180 47 2 37.075001 53.715000 41.200001 # H TIP3
181 47 2 36.782001 55.227001 41.034000 # H TIP3
182 48 4 28.777000 46.515999 37.988998 # O TIP3
183 48 2 28.554001 47.497002 37.971001 # H TIP3
184 48 2 29.770000 46.595001 37.910999 # H TIP3
185 49 4 32.273998 39.206001 39.634998 # O TIP3
186 49 2 31.278000 39.235001 39.787998 # H TIP3
187 49 2 32.507999 40.187000 39.389999 # H TIP3
188 50 4 36.867001 34.409000 37.786999 # O TIP3
189 50 2 36.094002 33.910000 37.909000 # H TIP3
190 50 2 37.317001 33.988998 37.001999 # H TIP3
191 51 4 30.683001 42.401001 56.970001 # O TIP3
192 51 2 30.563999 42.376999 56.021999 # H TIP3
193 51 2 31.098000 43.266998 57.014999 # H TIP3
194 52 4 30.403000 34.162998 62.952999 # O TIP3
195 52 2 30.694000 33.505001 62.296001 # H TIP3
196 52 2 30.556999 34.973999 62.473999 # H TIP3
197 53 4 39.256001 53.018002 56.692001 # O TIP3
198 53 2 39.122002 52.070000 56.514000 # H TIP3
199 53 2 40.105999 52.993000 57.167999 # H TIP3
200 54 4 30.149000 39.900002 34.678001 # O TIP3
201 54 2 30.607000 39.060001 34.668999 # H TIP3
202 54 2 30.906000 40.551998 34.747002 # H TIP3
203 55 4 33.022999 30.478001 69.043999 # O TIP3
204 55 2 33.039001 31.320999 69.525002 # H TIP3
205 55 2 32.597000 30.656000 68.209000 # H TIP3
206 56 4 32.792999 58.290001 50.252998 # O TIP3
207 56 2 32.120998 57.652000 49.932999 # H TIP3
208 56 2 32.959000 58.032001 51.151001 # H TIP3
209 57 4 37.561001 56.737000 68.728996 # O TIP3
210 57 2 37.928001 57.257999 69.474998 # H TIP3
211 57 2 38.237999 56.943001 67.997002 # H TIP3
212 58 4 40.365002 48.738998 69.825996 # O TIP3
213 58 2 39.820000 49.544998 69.759003 # H TIP3
214 58 2 40.020000 48.352001 70.640999 # H TIP3
215 59 4 29.306000 57.574001 35.167000 # O TIP3
216 59 2 28.340000 57.563000 35.429001 # H TIP3
217 59 2 29.646999 56.716000 35.499001 # H TIP3
218 60 4 30.891001 53.345001 41.444000 # O TIP3
219 60 2 31.747999 53.819000 41.481998 # H TIP3
220 60 2 30.200001 54.011002 41.493999 # H TIP3
221 61 4 46.845001 42.891998 61.437000 # O TIP3
222 61 2 45.877998 42.720001 61.187000 # H TIP3
223 61 2 47.049000 42.123001 62.056999 # H TIP3
224 62 4 34.054001 54.787998 58.063000 # O TIP3
225 62 2 34.458000 55.368999 58.730999 # H TIP3
226 62 2 33.157001 55.223000 57.962002 # H TIP3
227 63 4 31.497000 51.125999 59.741001 # O TIP3
228 63 2 30.954000 50.671001 60.500999 # H TIP3
229 63 2 30.865000 51.681999 59.353001 # H TIP3
230 64 4 43.319000 56.169998 65.196999 # O TIP3
231 64 2 43.500999 56.977001 65.625999 # H TIP3
232 64 2 42.888000 56.457001 64.349998 # H TIP3
233 65 4 37.039001 51.877998 50.161999 # O TIP3
234 65 2 37.870998 51.624001 50.547001 # H TIP3
235 65 2 36.473000 52.063000 50.957001 # H TIP3
236 66 4 46.395000 53.438999 54.794998 # O TIP3
237 66 2 45.888000 53.242001 55.555000 # H TIP3
238 66 2 47.320000 53.622002 55.127998 # H TIP3
239 67 4 42.345001 57.602001 68.475998 # O TIP3
240 67 2 42.764999 58.185001 67.769997 # H TIP3
241 67 2 43.043999 56.915001 68.510002 # H TIP3
242 68 4 28.540001 50.683998 34.049000 # O TIP3
243 68 2 29.438000 50.993999 34.202000 # H TIP3
244 68 2 28.561001 49.766998 34.254002 # H TIP3
245 69 4 41.714001 54.948002 70.003998 # O TIP3
246 69 2 41.317001 54.796001 69.128998 # H TIP3
247 69 2 41.104000 54.395000 70.528999 # H TIP3
248 70 4 41.587002 39.112000 51.088001 # O TIP3
249 70 2 41.719002 38.846001 51.973999 # H TIP3
250 70 2 42.500999 39.263000 50.813000 # H TIP3
251 71 4 37.833000 59.826000 38.021999 # O TIP3
252 71 2 37.061001 59.563999 38.458000 # H TIP3
253 71 2 38.259998 60.435001 38.549000 # H TIP3
254 72 4 38.056999 56.105999 44.400002 # O TIP3
255 72 2 38.182999 56.555000 45.261002 # H TIP3
256 72 2 37.423000 56.720001 44.011002 # H TIP3
257 73 4 33.860001 56.644001 40.028999 # O TIP3
258 73 2 33.484001 57.280998 39.356998 # H TIP3
259 73 2 34.777000 56.511002 39.778000 # H TIP3
260 74 4 29.261999 45.563999 56.202999 # O TIP3
261 74 2 29.209999 45.355999 57.196999 # H TIP3
262 74 2 30.063000 46.140999 56.105000 # H TIP3
263 75 4 34.556999 59.212002 59.866001 # O TIP3
264 75 2 34.814999 58.335999 59.681000 # H TIP3
265 75 2 35.158001 59.473999 60.605999 # H TIP3
266 76 4 36.058998 54.307999 48.290001 # O TIP3
267 76 2 35.118000 54.387001 48.247002 # H TIP3
268 76 2 36.251999 53.666000 48.963001 # H TIP3
269 77 4 34.340000 24.106001 60.525002 # O TIP3
270 77 2 33.773998 24.868999 60.314999 # H TIP3
271 77 2 35.150002 24.487000 60.868999 # H TIP3
272 78 4 37.313999 28.170000 64.366997 # O TIP3
273 78 2 36.879002 28.667999 65.099998 # H TIP3
274 78 2 37.379002 27.270000 64.688004 # H TIP3
275 79 4 43.389000 28.000999 34.966999 # O TIP3
276 79 2 44.199001 28.290001 34.594002 # H TIP3
277 79 2 42.783001 28.132000 34.137001 # H TIP3
278 80 4 35.546001 25.230000 66.560997 # O TIP3
279 80 2 34.941002 25.836000 65.959999 # H TIP3
280 80 2 35.421001 25.527000 67.494003 # H TIP3
281 81 4 37.910000 34.307999 42.657001 # O TIP3
282 81 2 37.683998 33.529999 42.099998 # H TIP3
283 81 2 37.446999 34.198002 43.484001 # H TIP3
284 82 4 35.035000 23.506001 52.296001 # O TIP3
285 82 2 35.625000 23.051001 52.993999 # H TIP3
286 82 2 34.123001 23.228001 52.500999 # H TIP3
287 83 4 38.869999 40.757000 71.529999 # O TIP3
288 83 2 38.341999 40.200001 72.135002 # H TIP3
289 83 2 39.761002 40.389999 71.695000 # H TIP3
290 84 4 41.866001 23.351000 35.458000 # O TIP3
291 84 2 42.173000 24.113001 35.888000 # H TIP3
292 84 2 41.187000 23.009001 36.043999 # H TIP3
293 85 4 36.798000 32.013000 41.292999 # O TIP3
294 85 2 36.158001 32.185001 40.613998 # H TIP3
295 85 2 36.363998 31.493000 42.000000 # H TIP3
296 86 4 37.053001 33.398998 45.200001 # O TIP3
297 86 2 36.202999 32.993000 45.459000 # H TIP3
298 86 2 37.487000 33.625999 46.026001 # H TIP3
299 87 4 38.257000 22.072001 34.519001 # O TIP3
300 87 2 38.341999 22.391001 35.481998 # H TIP3
301 87 2 37.717999 22.754999 34.132999 # H TIP3
302 88 4 32.592999 29.556999 40.243000 # O TIP3
303 88 2 33.380001 29.351000 40.779999 # H TIP3
304 88 2 31.976999 29.889999 40.888000 # H TIP3
305 89 4 31.378000 26.118999 42.280998 # O TIP3
306 89 2 31.084000 26.704000 41.563000 # H TIP3
307 89 2 31.792000 25.405001 41.792999 # H TIP3
308 90 4 31.250999 28.896999 51.791000 # O TIP3
309 90 2 30.747000 28.423000 52.430000 # H TIP3
310 90 2 31.579000 29.719999 52.219002 # H TIP3
311 91 4 30.865999 26.476000 65.079002 # O TIP3
312 91 2 30.235001 25.952000 65.615997 # H TIP3
313 91 2 30.278000 26.941999 64.486000 # H TIP3
314 92 4 29.815001 29.697001 61.127998 # O TIP3
315 92 2 29.655001 29.476000 60.213001 # H TIP3
316 92 2 29.809000 30.643000 61.199001 # H TIP3
317 93 4 28.712000 39.334000 69.556000 # O TIP3
318 93 2 28.434000 40.223999 69.818001 # H TIP3
319 93 2 28.841000 39.381001 68.612999 # H TIP3
320 94 4 37.952999 29.306999 57.414001 # O TIP3
321 94 2 37.563999 29.058001 58.311001 # H TIP3
322 94 2 38.410999 30.087999 57.653000 # H TIP3
323 95 4 37.902000 25.617001 65.271004 # O TIP3
324 95 2 37.030998 25.367001 65.667999 # H TIP3
325 95 2 38.334999 24.757000 65.130997 # H TIP3
326 96 4 31.094000 31.757000 45.624001 # O TIP3
327 96 2 31.573000 32.332001 44.978001 # H TIP3
328 96 2 31.415001 30.862000 45.428001 # H TIP3
329 97 4 30.353001 27.238001 48.719002 # O TIP3
330 97 2 30.132000 27.593000 49.564999 # H TIP3
331 97 2 31.275999 27.464001 48.591999 # H TIP3
332 98 4 34.356998 43.702999 34.785000 # O TIP3
333 98 2 33.525002 43.466999 34.313000 # H TIP3
334 98 2 34.834000 42.903999 34.658001 # H TIP3
335 99 4 59.778999 34.188000 39.518002 # O TIP3
336 99 2 59.518002 35.074001 39.196999 # H TIP3
337 99 2 60.265999 34.362000 40.333000 # H TIP3
338 100 4 31.992001 25.337000 51.883999 # O TIP3
339 100 2 31.117001 25.474001 51.598000 # H TIP3
340 100 2 32.556999 26.159000 51.761002 # H TIP3
341 101 4 30.319000 41.903999 54.097000 # O TIP3
342 101 2 30.907000 42.252998 53.410999 # H TIP3
343 101 2 29.441999 41.980000 53.604000 # H TIP3
344 102 4 48.588001 35.048000 43.532001 # O TIP3
345 102 2 48.714001 35.390999 42.683998 # H TIP3
346 102 2 47.594002 35.248001 43.716000 # H TIP3
347 103 4 39.466999 26.980000 67.311996 # O TIP3
348 103 2 39.138000 26.636000 66.505997 # H TIP3
349 103 2 39.361000 27.910999 67.324997 # H TIP3
350 104 4 29.761999 30.950001 56.980999 # O TIP3
351 104 2 30.107000 31.007000 56.112000 # H TIP3
352 104 2 29.834999 31.837999 57.252998 # H TIP3
353 105 4 32.102001 23.302000 65.226997 # O TIP3
354 105 2 31.805000 23.704000 64.455002 # H TIP3
355 105 2 32.705002 23.993999 65.564003 # H TIP3
356 106 4 42.500999 31.964001 52.603001 # O TIP3
357 106 2 42.137001 31.165001 52.969002 # H TIP3
358 106 2 42.441002 31.851999 51.660000 # H TIP3
359 107 4 36.851002 49.868999 38.044998 # O TIP3
360 107 2 37.202000 49.008999 37.824001 # H TIP3
361 107 2 36.764999 49.830002 38.999001 # H TIP3
362 108 4 33.548000 36.236000 51.556000 # O TIP3
363 108 2 33.933998 36.771000 52.273998 # H TIP3
364 108 2 33.844002 36.845001 50.797001 # H TIP3
365 109 4 44.257999 28.785999 55.247002 # O TIP3
366 109 2 43.615002 29.490000 54.915001 # H TIP3
367 109 2 43.948002 27.992001 54.845001 # H TIP3
368 110 4 38.080002 22.273001 71.577003 # O TIP3
369 110 2 37.463001 22.882000 71.097000 # H TIP3
370 110 2 38.606998 22.850000 72.170998 # H TIP3
371 111 4 28.716999 42.078999 69.889999 # O TIP3
372 111 2 28.138000 42.633999 69.320999 # H TIP3
373 111 2 29.507000 41.841999 69.303001 # H TIP3
374 112 4 33.432999 34.528999 37.055000 # O TIP3
375 112 2 33.647999 34.451000 36.077999 # H TIP3
376 112 2 32.874001 35.326000 37.123001 # H TIP3
377 113 4 55.824001 31.299999 51.639000 # O TIP3
378 113 2 55.145000 31.152000 52.328999 # H TIP3
379 113 2 55.377998 31.851000 50.955002 # H TIP3
380 114 4 32.527000 22.802000 52.796001 # O TIP3
381 114 2 32.249001 23.625999 52.418999 # H TIP3
382 114 2 32.209999 22.233000 52.036999 # H TIP3
383 115 4 32.569000 46.698002 47.666000 # O TIP3
384 115 2 31.613001 46.931999 47.661999 # H TIP3
385 115 2 32.733002 46.328999 46.778000 # H TIP3
386 116 4 38.941002 21.919001 60.130001 # O TIP3
387 116 2 38.810001 22.855000 59.941002 # H TIP3
388 116 2 38.533001 21.524000 59.348999 # H TIP3
389 117 4 34.555000 34.424000 62.157001 # O TIP3
390 117 2 34.404999 35.318001 62.438000 # H TIP3
391 117 2 34.403999 33.931000 62.946999 # H TIP3
392 118 4 33.134998 35.175999 40.419998 # O TIP3
393 118 2 34.022999 34.854000 40.673000 # H TIP3
394 118 2 32.983002 35.924999 40.993999 # H TIP3
395 119 4 29.462999 29.186001 64.304001 # O TIP3
396 119 2 28.753000 29.754999 64.661003 # H TIP3
397 119 2 29.518000 29.475000 63.387001 # H TIP3
398 120 4 38.365002 27.818001 51.293999 # O TIP3
399 120 2 38.662998 27.916000 52.196999 # H TIP3
400 120 2 37.819000 27.021000 51.387001 # H TIP3
401 121 4 29.653000 43.374001 33.500999 # O TIP3
402 121 2 29.247000 42.712002 34.057999 # H TIP3
403 121 2 29.473000 44.241001 33.959000 # H TIP3
404 122 4 37.605000 42.979000 35.466000 # O TIP3
405 122 2 37.576000 43.903000 35.109001 # H TIP3
406 122 2 37.262001 42.386002 34.778000 # H TIP3
407 123 4 28.730000 55.476002 45.389000 # O TIP3
408 123 2 29.353001 55.632000 46.122002 # H TIP3
409 123 2 28.306000 54.653000 45.695000 # H TIP3
410 124 4 32.366001 50.855000 53.585999 # O TIP3
411 124 2 31.738001 50.230999 53.977001 # H TIP3
412 124 2 32.569000 50.476002 52.674000 # H TIP3
413 125 4 30.319000 32.002998 35.090000 # O TIP3
414 125 2 30.097000 32.185001 36.019001 # H TIP3
415 125 2 30.922001 31.223000 35.083000 # H TIP3
416 126 4 30.556999 49.067001 54.528999 # O TIP3
417 126 2 29.801001 48.765999 55.076000 # H TIP3
418 126 2 30.115999 49.305000 53.693001 # H TIP3
419 127 4 30.594000 49.479000 70.286003 # O TIP3
420 127 2 30.444000 50.425999 70.077003 # H TIP3
421 127 2 29.945999 49.188000 70.966003 # H TIP3
422 128 4 36.098000 29.322001 66.570999 # O TIP3
423 128 2 36.257999 28.971001 67.504997 # H TIP3
424 128 2 36.703999 30.066000 66.466003 # H TIP3
425 129 4 41.360001 31.201000 61.918999 # O TIP3
426 129 2 41.831001 31.823000 62.528000 # H TIP3
427 129 2 40.574001 30.945000 62.431000 # H TIP3
428 130 4 28.798000 45.099998 35.354000 # O TIP3
429 130 2 29.611000 44.748001 35.806000 # H TIP3
430 130 2 28.228001 45.410000 36.105999 # H TIP3
431 131 4 30.058001 49.764000 39.792000 # O TIP3
432 131 2 29.533001 49.945999 40.581001 # H TIP3
433 131 2 29.471001 49.168999 39.277000 # H TIP3
434 132 4 41.195000 45.925999 45.557999 # O TIP3
435 132 2 40.866001 46.814999 45.752998 # H TIP3
436 132 2 41.030998 45.349998 46.319000 # H TIP3
437 133 4 28.969999 49.452999 42.480999 # O TIP3
438 133 2 27.988001 49.412998 42.508999 # H TIP3
439 133 2 29.273001 48.550999 42.729000 # H TIP3
440 134 4 30.684999 27.617001 40.006001 # O TIP3
441 134 2 30.441999 27.667999 39.027000 # H TIP3
442 134 2 31.385000 28.287001 40.046001 # H TIP3
443 135 4 34.886002 40.889999 49.800999 # O TIP3
444 135 2 35.492001 41.549999 49.423000 # H TIP3
445 135 2 34.290001 40.568001 49.054001 # H TIP3
446 136 4 41.311001 45.893002 69.250999 # O TIP3
447 136 2 41.214001 46.596001 69.900002 # H TIP3
448 136 2 41.667999 45.145000 69.709999 # H TIP3
449 137 4 30.809000 36.474998 66.839996 # O TIP3
450 137 2 30.254000 36.238998 67.588997 # H TIP3
451 137 2 31.582001 35.980999 66.969002 # H TIP3
452 138 4 33.153999 42.321999 59.853001 # O TIP3
453 138 2 32.592999 43.037998 60.112000 # H TIP3
454 138 2 33.171001 41.643002 60.573002 # H TIP3
455 139 4 37.313999 59.845001 50.488998 # O TIP3
456 139 2 37.265999 59.157001 51.174999 # H TIP3
457 139 2 38.080002 59.546001 49.977001 # H TIP3
458 140 4 44.167000 43.834999 36.248001 # O TIP3
459 140 2 44.338001 44.313000 37.088001 # H TIP3
460 140 2 44.402000 44.497002 35.551998 # H TIP3
461 141 4 41.514999 43.652000 35.214001 # O TIP3
462 141 2 40.939999 43.907001 35.928001 # H TIP3
463 141 2 42.403000 43.835999 35.540001 # H TIP3
464 142 4 37.500000 49.973000 62.617001 # O TIP3
465 142 2 38.389999 49.849998 62.152000 # H TIP3
466 142 2 37.172001 49.103001 62.705002 # H TIP3
467 143 4 30.980000 55.401001 47.215000 # O TIP3
468 143 2 31.724001 55.639999 46.625000 # H TIP3
469 143 2 31.077999 54.473999 47.390999 # H TIP3
470 144 4 36.363998 39.597000 63.458000 # O TIP3
471 144 2 35.943001 39.202000 62.675999 # H TIP3
472 144 2 36.391998 38.882999 64.107002 # H TIP3
473 145 4 33.172001 59.172001 52.978001 # O TIP3
474 145 2 33.492001 59.919998 52.493999 # H TIP3
475 145 2 32.213001 59.383999 53.238998 # H TIP3
476 146 4 43.300999 48.400002 63.868000 # O TIP3
477 146 2 42.428001 48.167999 63.394001 # H TIP3
478 146 2 43.042999 49.051998 64.499001 # H TIP3
479 147 4 36.155998 44.896999 40.103001 # O TIP3
480 147 2 36.981998 45.368999 40.168999 # H TIP3
481 147 2 35.492001 45.549000 39.778000 # H TIP3
482 148 4 38.903999 36.181999 38.183998 # O TIP3
483 148 2 38.025002 35.973000 37.874001 # H TIP3
484 148 2 39.375999 35.311001 38.182999 # H TIP3
485 149 4 47.633999 46.984001 49.915001 # O TIP3
486 149 2 48.157001 47.778000 49.965000 # H TIP3
487 149 2 46.709000 47.290001 49.847000 # H TIP3
488 150 4 34.959000 55.589001 55.514000 # O TIP3
489 150 2 34.193001 55.516998 54.923000 # H TIP3
490 150 2 34.691002 55.040001 56.265999 # H TIP3
491 151 4 34.972000 56.187000 67.807999 # O TIP3
492 151 2 35.575001 56.423000 68.460999 # H TIP3
493 151 2 34.910000 55.236000 67.930000 # H TIP3
494 152 4 30.061001 46.883999 50.660000 # O TIP3
495 152 2 30.149000 47.355000 49.860001 # H TIP3
496 152 2 29.247000 47.300999 51.070000 # H TIP3
497 153 4 29.658001 47.098999 58.798000 # O TIP3
498 153 2 30.555000 47.339001 58.891998 # H TIP3
499 153 2 29.459999 46.659000 59.591999 # H TIP3
500 154 4 29.729000 56.049000 66.874001 # O TIP3
501 154 2 29.766001 56.094002 67.886002 # H TIP3
502 154 2 30.542999 56.443001 66.644997 # H TIP3
503 155 4 42.674999 50.609001 65.541000 # O TIP3
504 155 2 42.549999 50.319000 66.461998 # H TIP3
505 155 2 41.743999 50.615002 65.213997 # H TIP3
506 156 4 37.061001 59.060001 43.327000 # O TIP3
507 156 2 36.576000 59.895000 43.132999 # H TIP3
508 156 2 37.169998 59.115002 44.330002 # H TIP3
509 157 4 39.905998 57.966999 64.851997 # O TIP3
510 157 2 39.414001 57.605000 65.613998 # H TIP3
511 157 2 40.217999 57.154999 64.310997 # H TIP3
512 158 4 31.764999 44.750000 58.533001 # O TIP3
513 158 2 32.085999 45.116001 59.367001 # H TIP3
514 158 2 30.809999 44.627998 58.714001 # H TIP3
515 159 4 29.600000 51.532001 68.823997 # O TIP3
516 159 2 29.702999 52.144001 68.084000 # H TIP3
517 159 2 28.886999 51.980999 69.308998 # H TIP3
518 160 4 33.188999 57.160000 34.362000 # O TIP3
519 160 2 33.722000 57.165001 33.563999 # H TIP3
520 160 2 32.563999 57.894001 34.133999 # H TIP3
521 161 4 49.930000 53.577000 44.585999 # O TIP3
522 161 2 50.002998 54.188999 45.292000 # H TIP3
523 161 2 50.676998 53.832001 43.965000 # H TIP3
524 162 4 35.460999 51.174000 64.436996 # O TIP3
525 162 2 36.091000 50.587002 63.958000 # H TIP3
526 162 2 34.752998 50.528000 64.529999 # H TIP3
527 163 4 35.410000 52.548000 52.566002 # O TIP3
528 163 2 34.553001 52.695999 52.132000 # H TIP3
529 163 2 35.289001 52.973999 53.480000 # H TIP3
530 164 4 30.132000 57.931999 57.820999 # O TIP3
531 164 2 30.865999 57.477001 57.401001 # H TIP3
532 164 2 30.378000 58.868000 57.665001 # H TIP3
533 165 4 37.120998 59.990002 70.957001 # O TIP3
534 165 2 37.866001 59.396000 70.961998 # H TIP3
535 165 2 37.457001 60.787998 71.410004 # H TIP3
536 166 4 39.411999 55.227001 52.415001 # O TIP3
537 166 2 38.867001 55.061001 51.632000 # H TIP3
538 166 2 38.851002 55.153000 53.224998 # H TIP3
539 167 4 39.924999 56.754002 67.365997 # O TIP3
540 167 2 40.047001 55.828999 67.252998 # H TIP3
541 167 2 40.792999 57.083000 67.684998 # H TIP3
542 168 4 34.775002 58.548000 55.118000 # O TIP3
543 168 2 34.877998 57.570000 55.292999 # H TIP3
544 168 2 34.203999 58.601002 54.374001 # H TIP3
545 169 4 41.551998 56.124001 72.519997 # O TIP3
546 169 2 41.074001 55.604000 73.181999 # H TIP3
547 169 2 41.671001 55.527000 71.718002 # H TIP3
548 170 4 46.612000 56.520000 58.345001 # O TIP3
549 170 2 46.661999 56.852001 57.446999 # H TIP3
550 170 2 45.984001 57.147999 58.825001 # H TIP3
551 171 4 34.105999 56.730999 72.056000 # O TIP3
552 171 2 33.473999 56.847000 71.374001 # H TIP3
553 171 2 34.337002 55.819000 71.985001 # H TIP3
554 172 4 43.985001 59.145000 63.668999 # O TIP3
555 172 2 44.938999 58.957001 63.414001 # H TIP3
556 172 2 43.681999 59.699001 62.897999 # H TIP3
557 173 4 34.014999 58.405998 66.749001 # O TIP3
558 173 2 34.412998 58.785000 67.527000 # H TIP3
559 173 2 34.778000 58.300999 66.149002 # H TIP3
560 174 4 31.926001 53.924000 52.564999 # O TIP3
561 174 2 31.930000 53.202000 51.859001 # H TIP3
562 174 2 31.091999 53.714001 53.012001 # H TIP3
563 175 4 34.308998 54.254002 63.066002 # O TIP3
564 175 2 35.167999 54.273998 63.563000 # H TIP3
565 175 2 34.605000 53.955002 62.169998 # H TIP3
566 176 4 32.036999 55.192001 38.108002 # O TIP3
567 176 2 31.659000 55.740002 38.828999 # H TIP3
568 176 2 31.268999 54.685001 37.848000 # H TIP3
569 177 4 39.588001 56.264000 48.411999 # O TIP3
570 177 2 39.644001 55.306999 48.671001 # H TIP3
571 177 2 38.823002 56.539001 48.852001 # H TIP3
572 178 4 47.375000 60.848000 63.497002 # O TIP3
573 178 2 47.356998 59.880001 63.813999 # H TIP3
574 178 2 47.869999 60.790001 62.686001 # H TIP3
575 179 4 34.577999 58.500000 46.123001 # O TIP3
576 179 2 34.823002 58.102001 46.916000 # H TIP3
577 179 2 34.688999 59.467999 46.331001 # H TIP3
578 180 4 29.740000 60.964001 40.224998 # O TIP3
579 180 2 28.736000 61.030998 40.186001 # H TIP3
580 180 2 29.910999 60.396000 41.007999 # H TIP3
581 181 4 48.734001 59.060001 58.422001 # O TIP3
582 181 2 48.078999 58.578999 57.808998 # H TIP3
583 181 2 49.252998 59.651001 57.875000 # H TIP3
584 182 4 28.722000 25.900999 43.044998 # O TIP3
585 182 2 28.400999 25.000000 42.805000 # H TIP3
586 182 2 29.480000 26.017000 42.456001 # H TIP3
587 183 4 33.331001 26.820000 48.512001 # O TIP3
588 183 2 33.859001 27.496000 48.926998 # H TIP3
589 183 2 33.567001 26.054001 49.002998 # H TIP3
590 184 4 29.864000 27.017000 62.007000 # O TIP3
591 184 2 29.913000 27.934000 61.729000 # H TIP3
592 184 2 28.990000 26.743999 61.611000 # H TIP3
593 185 4 38.679001 28.153000 48.348999 # O TIP3
594 185 2 38.875999 28.344000 49.301998 # H TIP3
595 185 2 38.102001 27.403999 48.464001 # H TIP3
596 186 4 54.872002 33.526001 33.145000 # O TIP3
597 186 2 54.488998 32.712002 32.770000 # H TIP3
598 186 2 55.849998 33.359001 33.019001 # H TIP3
599 187 4 30.164000 23.138000 57.344002 # O TIP3
600 187 2 29.438999 22.523001 57.175999 # H TIP3
601 187 2 30.100000 23.237000 58.366001 # H TIP3
602 188 4 39.737999 41.046001 42.424000 # O TIP3
603 188 2 40.254002 41.837002 42.332001 # H TIP3
604 188 2 40.410000 40.337002 42.367001 # H TIP3
605 189 4 35.839001 32.035000 61.416000 # O TIP3
606 189 2 35.444000 32.707001 61.973000 # H TIP3
607 189 2 35.129002 31.424000 61.249001 # H TIP3
608 190 4 32.622002 28.063999 70.000000 # O TIP3
609 190 2 31.816999 27.608000 69.664001 # H TIP3
610 190 2 32.605000 28.917999 69.556000 # H TIP3