LAMMPS data file. CGCMM style. atom_style charge generated by VMD/TopoTools v1.7 on Sat Dec 19 22:56:18 EST 2020
 5935 atoms
 0 bonds
 0 angles
 0 dihedrals
 0 impropers
 5 atom types
 0 bond types
 0 angle types
 0 dihedral types
 0 improper types
 27.934003 67.439004  xlo xhi
 21.436001 61.334000  ylo yhi
 32.561001 73.470001  zlo zhi

# Pair Coeffs
#
# 1  C
# 2  H
# 3  N
# 4  O
# 5  P

 Masses

 1 12.011000 # C
 2 1.008000 # H
 3 14.007000 # N
 4 15.999400 # O
 5 30.973801 # P

 Atoms # charge

1 1 0.110000 46.520000 38.988998 53.363998 # C
2 2 0.090000 45.665001 38.327000 53.639000 # H
3 4 -0.400000 46.785000 38.908001 51.948002 # O
4 1 0.110000 48.132999 38.409000 51.721001 # C
5 2 0.090000 48.202999 37.473999 51.117001 # H
6 1 0.280000 50.231998 40.470001 49.664001 # C
7 3 -0.710000 49.424999 41.488998 50.165001 # N
8 1 0.340000 48.616001 40.841999 50.945000 # C
9 2 0.120000 47.835999 41.389999 51.499001 # H
10 3 -0.050000 48.846001 39.464001 50.986000 # N
11 3 -0.740000 51.911999 39.273998 48.446999 # N
12 1 0.500000 51.493000 38.151001 49.028999 # C
13 2 0.130000 52.035999 37.229000 48.758999 # H
14 3 -0.750000 50.491001 38.015999 49.900002 # N
15 1 0.430000 49.891998 39.252998 50.171001 # C
16 1 0.460000 51.307999 40.466000 48.730999 # C
17 3 -0.770000 51.721001 41.568001 48.129002 # N
18 2 0.380000 52.480000 41.507999 47.466000 # H
19 2 0.380000 51.268002 42.444000 48.346001 # H
20 1 0.140000 48.719002 38.116001 53.139000 # C
21 2 0.090000 49.636002 38.514000 53.174000 # H
22 4 -0.650000 48.632000 36.737000 53.424999 # O
23 2 0.420000 49.485001 36.431999 53.716000 # H
24 1 0.140000 47.807999 38.874001 54.112000 # C
25 2 0.090000 48.234001 39.869999 54.375000 # H
26 4 -0.650000 47.713001 38.356998 55.423000 # O
27 2 0.420000 47.042999 37.664001 55.377998 # H
28 1 -0.080000 46.609001 40.422001 53.542000 # C
29 2 0.090000 46.495998 40.228001 54.515999 # H
30 2 0.090000 47.525002 40.334000 53.150002 # H
31 4 -0.620000 46.172001 41.568001 53.301998 # O
32 5 1.500000 45.228001 42.668999 53.257000 # P
33 4 -0.820000 46.380001 43.396000 52.787998 # O
34 4 -0.820000 44.182999 42.189999 52.351002 # O
35 4 -0.740000 44.917000 42.716000 54.789001 # O
36 5 1.500000 43.910999 43.740002 55.654999 # P
37 4 -0.820000 42.974998 42.722000 55.986000 # O
38 4 -0.820000 43.603001 44.766998 54.678001 # O
39 4 -0.860000 45.041000 44.014999 56.737999 # O
40 5 1.100000 46.106998 45.181999 56.950001 # P
41 4 -0.900000 45.778999 46.330002 56.051998 # O
42 4 -0.900000 47.382000 44.497002 56.625999 # O
43 4 -0.900000 45.972000 45.529999 58.375000 # O
44 4 -0.834000 31.643000 31.514000 48.369999 # O
45 2 0.417000 31.198999 31.882999 47.567001 # H
46 2 0.417000 31.066999 31.811001 49.092999 # H
47 4 -0.834000 34.007999 26.308001 53.356998 # O
48 2 0.417000 34.053001 26.656000 54.264000 # H
49 2 0.417000 34.567001 25.520000 53.426998 # H
50 4 -0.834000 32.543999 25.392000 62.353001 # O
51 2 0.417000 31.934000 24.591999 62.445999 # H
52 2 0.417000 31.969999 26.087000 61.888000 # H
53 4 -0.834000 28.950001 35.438999 71.032997 # O
54 2 0.417000 29.112000 34.695000 70.431999 # H
55 2 0.417000 28.594000 34.971001 71.825996 # H
56 4 -0.834000 33.160999 38.127998 44.537998 # O
57 2 0.417000 34.057999 38.410999 44.282001 # H
58 2 0.417000 33.312000 37.264000 44.956001 # H
59 4 -0.834000 42.411999 27.226000 63.021999 # O
60 2 0.417000 41.499001 26.750999 62.998001 # H
61 2 0.417000 42.959000 26.545000 63.438999 # H
62 4 -0.834000 36.299000 35.243000 53.798000 # O
63 2 0.417000 36.608002 34.779999 54.577999 # H
64 2 0.417000 36.480999 34.548000 53.111000 # H
65 4 -0.834000 39.437000 47.458000 63.839001 # O
66 2 0.417000 39.361000 48.126999 64.542000 # H
67 2 0.417000 38.594002 47.512001 63.402000 # H
68 4 -0.834000 31.761000 37.750000 33.776001 # O
69 2 0.417000 31.756001 36.820000 33.661999 # H
70 2 0.417000 32.502998 38.012001 33.247002 # H
71 4 -0.834000 34.180000 28.423000 50.908001 # O
72 2 0.417000 34.757000 28.778999 51.618000 # H
73 2 0.417000 33.284000 28.493999 51.265999 # H
74 4 -0.834000 44.101002 36.132999 37.042999 # O
75 2 0.417000 44.044998 35.703999 36.192001 # H
76 2 0.417000 44.779999 36.886002 36.910999 # H
77 4 -0.834000 30.725000 30.275999 42.095001 # O
78 2 0.417000 30.084999 29.722000 42.464001 # H
79 2 0.417000 30.139000 30.677000 41.428001 # H
80 4 -0.834000 31.910000 37.626999 54.575001 # O
81 2 0.417000 32.845001 37.466000 54.451000 # H
82 2 0.417000 31.629999 36.799000 55.047001 # H
83 4 -0.834000 30.966000 32.594002 60.326000 # O
84 2 0.417000 31.569000 32.400002 59.595001 # H
85 2 0.417000 30.389000 33.207001 59.896000 # H
86 4 -0.834000 32.215000 28.469000 59.547001 # O
87 2 0.417000 32.631001 29.263000 59.124001 # H
88 2 0.417000 31.761000 28.860001 60.278000 # H
89 4 -0.834000 35.146999 28.431000 71.046997 # O
90 2 0.417000 35.014999 28.982000 71.792999 # H
91 2 0.417000 34.219002 28.188000 70.728996 # H
92 4 -0.834000 38.648998 30.341000 37.452000 # O
93 2 0.417000 38.973000 30.302999 38.397999 # H
94 2 0.417000 37.723000 30.702000 37.541000 # H
95 4 -0.834000 27.976999 27.099001 47.056999 # O
96 2 0.417000 28.458000 27.422001 46.296001 # H
97 2 0.417000 28.583000 27.212999 47.813000 # H
98 4 -0.834000 37.856998 30.587999 47.382000 # O
99 2 0.417000 37.549000 31.184999 48.063000 # H
100 2 0.417000 37.995998 29.695999 47.755001 # H
101 4 -0.834000 35.938999 27.539000 61.918999 # O
102 2 0.417000 36.216999 26.638000 62.064999 # H
103 2 0.417000 36.396999 27.976999 62.702999 # H
104 4 -0.834000 52.152000 35.702999 70.592003 # O
105 2 0.417000 51.508999 35.374001 69.925003 # H
106 2 0.417000 53.036999 35.514000 70.148003 # H
107 4 -0.834000 34.291000 26.719999 59.960999 # O
108 2 0.417000 34.615002 27.063000 60.828999 # H
109 2 0.417000 33.537998 27.284000 59.745998 # H
110 4 -0.834000 40.863998 51.091999 41.553001 # O
111 2 0.417000 40.553001 51.228001 42.441002 # H
112 2 0.417000 41.738998 50.769001 41.678001 # H
113 4 -0.834000 29.636000 28.113001 34.409000 # O
114 2 0.417000 29.917999 27.171000 34.446999 # H
115 2 0.417000 28.753000 28.031000 33.949001 # H
116 4 -0.834000 32.796001 42.035000 43.705002 # O
117 2 0.417000 33.441002 42.214001 44.429001 # H
118 2 0.417000 33.359001 42.346001 42.922001 # H
119 4 -0.834000 42.997002 42.286999 45.297001 # O
120 2 0.417000 42.196999 42.241001 45.757999 # H
121 2 0.417000 42.647999 42.488998 44.383999 # H
122 4 -0.834000 29.313999 25.214001 55.279999 # O
123 2 0.417000 28.813999 24.857000 54.553001 # H
124 2 0.417000 29.750000 24.509001 55.604000 # H
125 4 -0.834000 28.459999 36.569000 54.942001 # O
126 2 0.417000 28.618999 36.856998 55.814999 # H
127 2 0.417000 28.287001 37.393002 54.441002 # H
128 4 -0.834000 41.118000 35.227001 65.945000 # O
129 2 0.417000 40.905998 34.985001 66.821999 # H
130 2 0.417000 41.498001 36.094002 65.985001 # H
131 4 -0.834000 40.396000 42.027000 63.808998 # O
132 2 0.417000 40.305000 42.053001 64.768997 # H
133 2 0.417000 40.256001 42.958000 63.528999 # H
134 4 -0.834000 33.583000 45.349998 45.424999 # O
135 2 0.417000 32.814999 45.054001 45.011002 # H
136 2 0.417000 34.012001 45.768002 44.674000 # H
137 4 -0.834000 38.401001 29.035999 34.869999 # O
138 2 0.417000 38.736000 29.833000 34.459999 # H
139 2 0.417000 38.223000 29.320999 35.773998 # H
140 4 -0.834000 36.543999 47.116001 44.676998 # O
141 2 0.417000 37.098000 46.973999 45.480999 # H
142 2 0.417000 36.779999 48.027000 44.393002 # H
143 4 -0.834000 32.243999 44.183998 48.730999 # O
144 2 0.417000 32.124001 45.112000 48.354000 # H
145 2 0.417000 33.035999 44.228001 49.242001 # H
146 4 -0.834000 31.573999 35.120998 56.049000 # O
147 2 0.417000 31.405001 34.307999 56.528000 # H
148 2 0.417000 32.535999 35.201000 56.126999 # H
149 4 -0.834000 47.926998 23.393000 58.630001 # O
150 2 0.417000 48.389000 22.511000 58.544998 # H
151 2 0.417000 48.641998 24.084999 58.479000 # H
152 4 -0.834000 50.547001 27.674000 35.944000 # O
153 2 0.417000 49.680000 27.277000 36.296001 # H
154 2 0.417000 50.925999 27.091000 35.324001 # H
155 4 -0.834000 35.757000 49.778000 53.106998 # O
156 2 0.417000 36.630001 49.666000 53.580002 # H
157 2 0.417000 35.644001 50.727001 52.910000 # H
158 4 -0.834000 38.901001 26.797001 33.484001 # O
159 2 0.417000 39.112999 26.201000 34.220001 # H
160 2 0.417000 38.632000 27.643999 33.959000 # H
161 4 -0.834000 66.654999 46.077000 58.222000 # O
162 2 0.417000 66.596001 46.816002 57.601002 # H
163 2 0.417000 67.035004 46.405998 59.046001 # H
164 4 -0.834000 36.622002 25.746000 51.743999 # O
165 2 0.417000 35.938999 25.042999 51.792000 # H
166 2 0.417000 36.018002 26.496000 51.618999 # H
167 4 -0.834000 36.355999 38.750999 55.741001 # O
168 2 0.417000 35.491001 38.771999 56.160999 # H
169 2 0.417000 36.405998 39.695000 55.474998 # H
170 4 -0.834000 32.317001 32.820000 57.737000 # O
171 2 0.417000 32.817001 32.129002 58.144001 # H
172 2 0.417000 32.877998 33.580002 58.043999 # H
173 4 -0.834000 29.645000 37.106998 61.632000 # O
174 2 0.417000 30.094999 37.382000 62.439999 # H
175 2 0.417000 28.738001 36.949001 61.933998 # H
176 4 -0.834000 44.445000 49.521000 34.646999 # O
177 2 0.417000 44.828999 48.661999 34.965000 # H
178 2 0.417000 43.507999 49.287998 34.554001 # H
179 4 -0.834000 36.351002 54.346001 41.202000 # O
180 2 0.417000 37.075001 53.715000 41.200001 # H
181 2 0.417000 36.782001 55.227001 41.034000 # H
182 4 -0.834000 28.777000 46.515999 37.988998 # O
183 2 0.417000 28.554001 47.497002 37.971001 # H
184 2 0.417000 29.770000 46.595001 37.910999 # H
185 4 -0.834000 32.273998 39.206001 39.634998 # O
186 2 0.417000 31.278000 39.235001 39.787998 # H
187 2 0.417000 32.507999 40.187000 39.389999 # H
188 4 -0.834000 36.867001 34.409000 37.786999 # O
189 2 0.417000 36.094002 33.910000 37.909000 # H
190 2 0.417000 37.317001 33.988998 37.001999 # H
191 4 -0.834000 30.683001 42.401001 56.970001 # O
192 2 0.417000 30.563999 42.376999 56.021999 # H
193 2 0.417000 31.098000 43.266998 57.014999 # H
194 4 -0.834000 30.403000 34.162998 62.952999 # O
195 2 0.417000 30.694000 33.505001 62.296001 # H
196 2 0.417000 30.556999 34.973999 62.473999 # H
197 4 -0.834000 39.256001 53.018002 56.692001 # O
198 2 0.417000 39.122002 52.070000 56.514000 # H
199 2 0.417000 40.105999 52.993000 57.167999 # H
200 4 -0.834000 30.149000 39.900002 34.678001 # O
201 2 0.417000 30.607000 39.060001 34.668999 # H
202 2 0.417000 30.906000 40.551998 34.747002 # H
203 4 -0.834000 33.022999 30.478001 69.043999 # O
204 2 0.417000 33.039001 31.320999 69.525002 # H
205 2 0.417000 32.597000 30.656000 68.209000 # H
206 4 -0.834000 32.792999 58.290001 50.252998 # O
207 2 0.417000 32.120998 57.652000 49.932999 # H
208 2 0.417000 32.959000 58.032001 51.151001 # H
209 4 -0.834000 37.561001 56.737000 68.728996 # O
210 2 0.417000 37.928001 57.257999 69.474998 # H
211 2 0.417000 38.237999 56.943001 67.997002 # H
212 4 -0.834000 40.365002 48.738998 69.825996 # O
213 2 0.417000 39.820000 49.544998 69.759003 # H
214 2 0.417000 40.020000 48.352001 70.640999 # H
215 4 -0.834000 29.306000 57.574001 35.167000 # O
216 2 0.417000 28.340000 57.563000 35.429001 # H
217 2 0.417000 29.646999 56.716000 35.499001 # H
218 4 -0.834000 30.891001 53.345001 41.444000 # O
219 2 0.417000 31.747999 53.819000 41.481998 # H
220 2 0.417000 30.200001 54.011002 41.493999 # H
221 4 -0.834000 46.845001 42.891998 61.437000 # O
222 2 0.417000 45.877998 42.720001 61.187000 # H
223 2 0.417000 47.049000 42.123001 62.056999 # H
224 4 -0.834000 34.054001 54.787998 58.063000 # O
225 2 0.417000 34.458000 55.368999 58.730999 # H
226 2 0.417000 33.157001 55.223000 57.962002 # H
227 4 -0.834000 31.497000 51.125999 59.741001 # O
228 2 0.417000 30.954000 50.671001 60.500999 # H
229 2 0.417000 30.865000 51.681999 59.353001 # H
230 4 -0.834000 43.319000 56.169998 65.196999 # O
231 2 0.417000 43.500999 56.977001 65.625999 # H
232 2 0.417000 42.888000 56.457001 64.349998 # H
233 4 -0.834000 37.039001 51.877998 50.161999 # O
234 2 0.417000 37.870998 51.624001 50.547001 # H
235 2 0.417000 36.473000 52.063000 50.957001 # H
236 4 -0.834000 46.395000 53.438999 54.794998 # O
237 2 0.417000 45.888000 53.242001 55.555000 # H
238 2 0.417000 47.320000 53.622002 55.127998 # H
239 4 -0.834000 42.345001 57.602001 68.475998 # O
240 2 0.417000 42.764999 58.185001 67.769997 # H
241 2 0.417000 43.043999 56.915001 68.510002 # H
242 4 -0.834000 28.540001 50.683998 34.049000 # O
243 2 0.417000 29.438000 50.993999 34.202000 # H
244 2 0.417000 28.561001 49.766998 34.254002 # H
245 4 -0.834000 41.714001 54.948002 70.003998 # O
246 2 0.417000 41.317001 54.796001 69.128998 # H
247 2 0.417000 41.104000 54.395000 70.528999 # H
248 4 -0.834000 41.587002 39.112000 51.088001 # O
249 2 0.417000 41.719002 38.846001 51.973999 # H
250 2 0.417000 42.500999 39.263000 50.813000 # H
251 4 -0.834000 37.833000 59.826000 38.021999 # O
252 2 0.417000 37.061001 59.563999 38.458000 # H
253 2 0.417000 38.259998 60.435001 38.549000 # H
254 4 -0.834000 38.056999 56.105999 44.400002 # O
255 2 0.417000 38.182999 56.555000 45.261002 # H
256 2 0.417000 37.423000 56.720001 44.011002 # H
257 4 -0.834000 33.860001 56.644001 40.028999 # O
258 2 0.417000 33.484001 57.280998 39.356998 # H
259 2 0.417000 34.777000 56.511002 39.778000 # H
260 4 -0.834000 29.261999 45.563999 56.202999 # O
261 2 0.417000 29.209999 45.355999 57.196999 # H
262 2 0.417000 30.063000 46.140999 56.105000 # H
263 4 -0.834000 34.556999 59.212002 59.866001 # O
264 2 0.417000 34.814999 58.335999 59.681000 # H
265 2 0.417000 35.158001 59.473999 60.605999 # H
266 4 -0.834000 36.058998 54.307999 48.290001 # O
267 2 0.417000 35.118000 54.387001 48.247002 # H
268 2 0.417000 36.251999 53.666000 48.963001 # H
269 4 -0.834000 34.340000 24.106001 60.525002 # O
270 2 0.417000 33.773998 24.868999 60.314999 # H
271 2 0.417000 35.150002 24.487000 60.868999 # H
272 4 -0.834000 37.313999 28.170000 64.366997 # O
273 2 0.417000 36.879002 28.667999 65.099998 # H
274 2 0.417000 37.379002 27.270000 64.688004 # H
275 4 -0.834000 43.389000 28.000999 34.966999 # O
276 2 0.417000 44.199001 28.290001 34.594002 # H
277 2 0.417000 42.783001 28.132000 34.137001 # H
278 4 -0.834000 35.546001 25.230000 66.560997 # O
279 2 0.417000 34.941002 25.836000 65.959999 # H
280 2 0.417000 35.421001 25.527000 67.494003 # H
281 4 -0.834000 37.910000 34.307999 42.657001 # O
282 2 0.417000 37.683998 33.529999 42.099998 # H
283 2 0.417000 37.446999 34.198002 43.484001 # H
284 4 -0.834000 35.035000 23.506001 52.296001 # O
285 2 0.417000 35.625000 23.051001 52.993999 # H
286 2 0.417000 34.123001 23.228001 52.500999 # H
287 4 -0.834000 38.869999 40.757000 71.529999 # O
288 2 0.417000 38.341999 40.200001 72.135002 # H
289 2 0.417000 39.761002 40.389999 71.695000 # H
290 4 -0.834000 41.866001 23.351000 35.458000 # O
291 2 0.417000 42.173000 24.113001 35.888000 # H
292 2 0.417000 41.187000 23.009001 36.043999 # H
293 4 -0.834000 36.798000 32.013000 41.292999 # O
294 2 0.417000 36.158001 32.185001 40.613998 # H
295 2 0.417000 36.363998 31.493000 42.000000 # H
296 4 -0.834000 37.053001 33.398998 45.200001 # O
297 2 0.417000 36.202999 32.993000 45.459000 # H
298 2 0.417000 37.487000 33.625999 46.026001 # H
299 4 -0.834000 38.257000 22.072001 34.519001 # O
300 2 0.417000 38.341999 22.391001 35.481998 # H
301 2 0.417000 37.717999 22.754999 34.132999 # H
302 4 -0.834000 32.592999 29.556999 40.243000 # O
303 2 0.417000 33.380001 29.351000 40.779999 # H
304 2 0.417000 31.976999 29.889999 40.888000 # H
305 4 -0.834000 31.378000 26.118999 42.280998 # O
306 2 0.417000 31.084000 26.704000 41.563000 # H
307 2 0.417000 31.792000 25.405001 41.792999 # H
308 4 -0.834000 31.250999 28.896999 51.791000 # O
309 2 0.417000 30.747000 28.423000 52.430000 # H
310 2 0.417000 31.579000 29.719999 52.219002 # H
311 4 -0.834000 30.865999 26.476000 65.079002 # O
312 2 0.417000 30.235001 25.952000 65.615997 # H
313 2 0.417000 30.278000 26.941999 64.486000 # H
314 4 -0.834000 29.815001 29.697001 61.127998 # O
315 2 0.417000 29.655001 29.476000 60.213001 # H
316 2 0.417000 29.809000 30.643000 61.199001 # H
317 4 -0.834000 28.712000 39.334000 69.556000 # O
318 2 0.417000 28.434000 40.223999 69.818001 # H
319 2 0.417000 28.841000 39.381001 68.612999 # H
320 4 -0.834000 37.952999 29.306999 57.414001 # O
321 2 0.417000 37.563999 29.058001 58.311001 # H
322 2 0.417000 38.410999 30.087999 57.653000 # H
323 4 -0.834000 37.902000 25.617001 65.271004 # O
324 2 0.417000 37.030998 25.367001 65.667999 # H
325 2 0.417000 38.334999 24.757000 65.130997 # H
326 4 -0.834000 31.094000 31.757000 45.624001 # O
327 2 0.417000 31.573000 32.332001 44.978001 # H
328 2 0.417000 31.415001 30.862000 45.428001 # H
329 4 -0.834000 30.353001 27.238001 48.719002 # O
330 2 0.417000 30.132000 27.593000 49.564999 # H
331 2 0.417000 31.275999 27.464001 48.591999 # H
332 4 -0.834000 34.356998 43.702999 34.785000 # O
333 2 0.417000 33.525002 43.466999 34.313000 # H
334 2 0.417000 34.834000 42.903999 34.658001 # H
335 4 -0.834000 59.778999 34.188000 39.518002 # O
336 2 0.417000 59.518002 35.074001 39.196999 # H
337 2 0.417000 60.265999 34.362000 40.333000 # H
338 4 -0.834000 31.992001 25.337000 51.883999 # O
339 2 0.417000 31.117001 25.474001 51.598000 # H
340 2 0.417000 32.556999 26.159000 51.761002 # H
341 4 -0.834000 30.319000 41.903999 54.097000 # O
342 2 0.417000 30.907000 42.252998 53.410999 # H
343 2 0.417000 29.441999 41.980000 53.604000 # H
344 4 -0.834000 48.588001 35.048000 43.532001 # O
345 2 0.417000 48.714001 35.390999 42.683998 # H
346 2 0.417000 47.594002 35.248001 43.716000 # H
347 4 -0.834000 39.466999 26.980000 67.311996 # O
348 2 0.417000 39.138000 26.636000 66.505997 # H
349 2 0.417000 39.361000 27.910999 67.324997 # H
350 4 -0.834000 29.761999 30.950001 56.980999 # O
351 2 0.417000 30.107000 31.007000 56.112000 # H
352 2 0.417000 29.834999 31.837999 57.252998 # H
353 4 -0.834000 32.102001 23.302000 65.226997 # O
354 2 0.417000 31.805000 23.704000 64.455002 # H
355 2 0.417000 32.705002 23.993999 65.564003 # H
356 4 -0.834000 42.500999 31.964001 52.603001 # O
357 2 0.417000 42.137001 31.165001 52.969002 # H
358 2 0.417000 42.441002 31.851999 51.660000 # H
359 4 -0.834000 36.851002 49.868999 38.044998 # O
360 2 0.417000 37.202000 49.008999 37.824001 # H
361 2 0.417000 36.764999 49.830002 38.999001 # H
362 4 -0.834000 33.548000 36.236000 51.556000 # O
363 2 0.417000 33.933998 36.771000 52.273998 # H
364 2 0.417000 33.844002 36.845001 50.797001 # H
365 4 -0.834000 44.257999 28.785999 55.247002 # O
366 2 0.417000 43.615002 29.490000 54.915001 # H
367 2 0.417000 43.948002 27.992001 54.845001 # H
368 4 -0.834000 38.080002 22.273001 71.577003 # O
369 2 0.417000 37.463001 22.882000 71.097000 # H
370 2 0.417000 38.606998 22.850000 72.170998 # H
371 4 -0.834000 28.716999 42.078999 69.889999 # O
372 2 0.417000 28.138000 42.633999 69.320999 # H
373 2 0.417000 29.507000 41.841999 69.303001 # H
374 4 -0.834000 33.432999 34.528999 37.055000 # O
375 2 0.417000 33.647999 34.451000 36.077999 # H
376 2 0.417000 32.874001 35.326000 37.123001 # H
377 4 -0.834000 55.824001 31.299999 51.639000 # O
378 2 0.417000 55.145000 31.152000 52.328999 # H
379 2 0.417000 55.377998 31.851000 50.955002 # H
380 4 -0.834000 32.527000 22.802000 52.796001 # O
381 2 0.417000 32.249001 23.625999 52.418999 # H
382 2 0.417000 32.209999 22.233000 52.036999 # H
383 4 -0.834000 32.569000 46.698002 47.666000 # O
384 2 0.417000 31.613001 46.931999 47.661999 # H
385 2 0.417000 32.733002 46.328999 46.778000 # H
386 4 -0.834000 38.941002 21.919001 60.130001 # O
387 2 0.417000 38.810001 22.855000 59.941002 # H
388 2 0.417000 38.533001 21.524000 59.348999 # H
389 4 -0.834000 34.555000 34.424000 62.157001 # O
390 2 0.417000 34.404999 35.318001 62.438000 # H
391 2 0.417000 34.403999 33.931000 62.946999 # H
392 4 -0.834000 33.134998 35.175999 40.419998 # O
393 2 0.417000 34.022999 34.854000 40.673000 # H
394 2 0.417000 32.983002 35.924999 40.993999 # H
395 4 -0.834000 29.462999 29.186001 64.304001 # O
396 2 0.417000 28.753000 29.754999 64.661003 # H
397 2 0.417000 29.518000 29.475000 63.387001 # H
398 4 -0.834000 38.365002 27.818001 51.293999 # O
399 2 0.417000 38.662998 27.916000 52.196999 # H
400 2 0.417000 37.819000 27.021000 51.387001 # H
401 4 -0.834000 29.653000 43.374001 33.500999 # O
402 2 0.417000 29.247000 42.712002 34.057999 # H
403 2 0.417000 29.473000 44.241001 33.959000 # H
404 4 -0.834000 37.605000 42.979000 35.466000 # O
405 2 0.417000 37.576000 43.903000 35.109001 # H
406 2 0.417000 37.262001 42.386002 34.778000 # H
407 4 -0.834000 28.730000 55.476002 45.389000 # O
408 2 0.417000 29.353001 55.632000 46.122002 # H
409 2 0.417000 28.306000 54.653000 45.695000 # H
410 4 -0.834000 32.366001 50.855000 53.585999 # O
411 2 0.417000 31.738001 50.230999 53.977001 # H
412 2 0.417000 32.569000 50.476002 52.674000 # H
413 4 -0.834000 30.319000 32.002998 35.090000 # O
414 2 0.417000 30.097000 32.185001 36.019001 # H
415 2 0.417000 30.922001 31.223000 35.083000 # H
416 4 -0.834000 30.556999 49.067001 54.528999 # O
417 2 0.417000 29.801001 48.765999 55.076000 # H
418 2 0.417000 30.115999 49.305000 53.693001 # H
419 4 -0.834000 30.594000 49.479000 70.286003 # O
420 2 0.417000 30.444000 50.425999 70.077003 # H
421 2 0.417000 29.945999 49.188000 70.966003 # H
422 4 -0.834000 36.098000 29.322001 66.570999 # O
423 2 0.417000 36.257999 28.971001 67.504997 # H
424 2 0.417000 36.703999 30.066000 66.466003 # H
425 4 -0.834000 41.360001 31.201000 61.918999 # O
426 2 0.417000 41.831001 31.823000 62.528000 # H
427 2 0.417000 40.574001 30.945000 62.431000 # H
428 4 -0.834000 28.798000 45.099998 35.354000 # O
429 2 0.417000 29.611000 44.748001 35.806000 # H
430 2 0.417000 28.228001 45.410000 36.105999 # H
431 4 -0.834000 30.058001 49.764000 39.792000 # O
432 2 0.417000 29.533001 49.945999 40.581001 # H
433 2 0.417000 29.471001 49.168999 39.277000 # H
434 4 -0.834000 41.195000 45.925999 45.557999 # O
435 2 0.417000 40.866001 46.814999 45.752998 # H
436 2 0.417000 41.030998 45.349998 46.319000 # H
437 4 -0.834000 28.969999 49.452999 42.480999 # O
438 2 0.417000 27.988001 49.412998 42.508999 # H
439 2 0.417000 29.273001 48.550999 42.729000 # H
440 4 -0.834000 30.684999 27.617001 40.006001 # O
441 2 0.417000 30.441999 27.667999 39.027000 # H
442 2 0.417000 31.385000 28.287001 40.046001 # H
443 4 -0.834000 34.886002 40.889999 49.800999 # O
444 2 0.417000 35.492001 41.549999 49.423000 # H
445 2 0.417000 34.290001 40.568001 49.054001 # H
446 4 -0.834000 41.311001 45.893002 69.250999 # O
447 2 0.417000 41.214001 46.596001 69.900002 # H
448 2 0.417000 41.667999 45.145000 69.709999 # H
449 4 -0.834000 30.809000 36.474998 66.839996 # O
450 2 0.417000 30.254000 36.238998 67.588997 # H
451 2 0.417000 31.582001 35.980999 66.969002 # H
452 4 -0.834000 33.153999 42.321999 59.853001 # O
453 2 0.417000 32.592999 43.037998 60.112000 # H
454 2 0.417000 33.171001 41.643002 60.573002 # H
455 4 -0.834000 37.313999 59.845001 50.488998 # O
456 2 0.417000 37.265999 59.157001 51.174999 # H
457 2 0.417000 38.080002 59.546001 49.977001 # H
458 4 -0.834000 44.167000 43.834999 36.248001 # O
459 2 0.417000 44.338001 44.313000 37.088001 # H
460 2 0.417000 44.402000 44.497002 35.551998 # H
461 4 -0.834000 41.514999 43.652000 35.214001 # O
462 2 0.417000 40.939999 43.907001 35.928001 # H
463 2 0.417000 42.403000 43.835999 35.540001 # H
464 4 -0.834000 37.500000 49.973000 62.617001 # O
465 2 0.417000 38.389999 49.849998 62.152000 # H
466 2 0.417000 37.172001 49.103001 62.705002 # H
467 4 -0.834000 30.980000 55.401001 47.215000 # O
468 2 0.417000 31.724001 55.639999 46.625000 # H
469 2 0.417000 31.077999 54.473999 47.390999 # H
470 4 -0.834000 36.363998 39.597000 63.458000 # O
471 2 0.417000 35.943001 39.202000 62.675999 # H
472 2 0.417000 36.391998 38.882999 64.107002 # H
473 4 -0.834000 33.172001 59.172001 52.978001 # O
474 2 0.417000 33.492001 59.919998 52.493999 # H
475 2 0.417000 32.213001 59.383999 53.238998 # H
476 4 -0.834000 43.300999 48.400002 63.868000 # O
477 2 0.417000 42.428001 48.167999 63.394001 # H
478 2 0.417000 43.042999 49.051998 64.499001 # H
479 4 -0.834000 36.155998 44.896999 40.103001 # O
480 2 0.417000 36.981998 45.368999 40.168999 # H
481 2 0.417000 35.492001 45.549000 39.778000 # H
482 4 -0.834000 38.903999 36.181999 38.183998 # O
483 2 0.417000 38.025002 35.973000 37.874001 # H
484 2 0.417000 39.375999 35.311001 38.182999 # H
485 4 -0.834000 47.633999 46.984001 49.915001 # O
486 2 0.417000 48.157001 47.778000 49.965000 # H
487 2 0.417000 46.709000 47.290001 49.847000 # H
488 4 -0.834000 34.959000 55.589001 55.514000 # O
489 2 0.417000 34.193001 55.516998 54.923000 # H
490 2 0.417000 34.691002 55.040001 56.265999 # H
491 4 -0.834000 34.972000 56.187000 67.807999 # O
492 2 0.417000 35.575001 56.423000 68.460999 # H
493 2 0.417000 34.910000 55.236000 67.930000 # H
494 4 -0.834000 30.061001 46.883999 50.660000 # O
495 2 0.417000 30.149000 47.355000 49.860001 # H
496 2 0.417000 29.247000 47.300999 51.070000 # H
497 4 -0.834000 29.658001 47.098999 58.798000 # O
498 2 0.417000 30.555000 47.339001 58.891998 # H
499 2 0.417000 29.459999 46.659000 59.591999 # H
500 4 -0.834000 29.729000 56.049000 66.874001 # O
501 2 0.417000 29.766001 56.094002 67.886002 # H
502 2 0.417000 30.542999 56.443001 66.644997 # H
503 4 -0.834000 42.674999 50.609001 65.541000 # O
504 2 0.417000 42.549999 50.319000 66.461998 # H
505 2 0.417000 41.743999 50.615002 65.213997 # H
506 4 -0.834000 37.061001 59.060001 43.327000 # O
507 2 0.417000 36.576000 59.895000 43.132999 # H
508 2 0.417000 37.169998 59.115002 44.330002 # H
509 4 -0.834000 39.905998 57.966999 64.851997 # O
510 2 0.417000 39.414001 57.605000 65.613998 # H
511 2 0.417000 40.217999 57.154999 64.310997 # H
512 4 -0.834000 31.764999 44.750000 58.533001 # O
513 2 0.417000 32.085999 45.116001 59.367001 # H
514 2 0.417000 30.809999 44.627998 58.714001 # H
515 4 -0.834000 29.600000 51.532001 68.823997 # O
516 2 0.417000 29.702999 52.144001 68.084000 # H
517 2 0.417000 28.886999 51.980999 69.308998 # H
518 4 -0.834000 33.188999 57.160000 34.362000 # O
519 2 0.417000 33.722000 57.165001 33.563999 # H
520 2 0.417000 32.563999 57.894001 34.133999 # H
521 4 -0.834000 49.930000 53.577000 44.585999 # O
522 2 0.417000 50.002998 54.188999 45.292000 # H
523 2 0.417000 50.676998 53.832001 43.965000 # H
524 4 -0.834000 35.460999 51.174000 64.436996 # O
525 2 0.417000 36.091000 50.587002 63.958000 # H
526 2 0.417000 34.752998 50.528000 64.529999 # H
527 4 -0.834000 35.410000 52.548000 52.566002 # O
528 2 0.417000 34.553001 52.695999 52.132000 # H
529 2 0.417000 35.289001 52.973999 53.480000 # H
530 4 -0.834000 30.132000 57.931999 57.820999 # O
531 2 0.417000 30.865999 57.477001 57.401001 # H
532 2 0.417000 30.378000 58.868000 57.665001 # H
533 4 -0.834000 37.120998 59.990002 70.957001 # O
534 2 0.417000 37.866001 59.396000 70.961998 # H
535 2 0.417000 37.457001 60.787998 71.410004 # H
536 4 -0.834000 39.411999 55.227001 52.415001 # O
537 2 0.417000 38.867001 55.061001 51.632000 # H
538 2 0.417000 38.851002 55.153000 53.224998 # H
539 4 -0.834000 39.924999 56.754002 67.365997 # O
540 2 0.417000 40.047001 55.828999 67.252998 # H
541 2 0.417000 40.792999 57.083000 67.684998 # H
542 4 -0.834000 34.775002 58.548000 55.118000 # O
543 2 0.417000 34.877998 57.570000 55.292999 # H
544 2 0.417000 34.203999 58.601002 54.374001 # H
545 4 -0.834000 41.551998 56.124001 72.519997 # O
546 2 0.417000 41.074001 55.604000 73.181999 # H
547 2 0.417000 41.671001 55.527000 71.718002 # H
548 4 -0.834000 46.612000 56.520000 58.345001 # O
549 2 0.417000 46.661999 56.852001 57.446999 # H
550 2 0.417000 45.984001 57.147999 58.825001 # H
551 4 -0.834000 34.105999 56.730999 72.056000 # O
552 2 0.417000 33.473999 56.847000 71.374001 # H
553 2 0.417000 34.337002 55.819000 71.985001 # H
554 4 -0.834000 43.985001 59.145000 63.668999 # O
555 2 0.417000 44.938999 58.957001 63.414001 # H
556 2 0.417000 43.681999 59.699001 62.897999 # H
557 4 -0.834000 34.014999 58.405998 66.749001 # O
558 2 0.417000 34.412998 58.785000 67.527000 # H
559 2 0.417000 34.778000 58.300999 66.149002 # H
560 4 -0.834000 31.926001 53.924000 52.564999 # O
561 2 0.417000 31.930000 53.202000 51.859001 # H
562 2 0.417000 31.091999 53.714001 53.012001 # H
563 4 -0.834000 34.308998 54.254002 63.066002 # O
564 2 0.417000 35.167999 54.273998 63.563000 # H
565 2 0.417000 34.605000 53.955002 62.169998 # H
566 4 -0.834000 32.036999 55.192001 38.108002 # O
567 2 0.417000 31.659000 55.740002 38.828999 # H
568 2 0.417000 31.268999 54.685001 37.848000 # H
569 4 -0.834000 39.588001 56.264000 48.411999 # O
570 2 0.417000 39.644001 55.306999 48.671001 # H
571 2 0.417000 38.823002 56.539001 48.852001 # H
572 4 -0.834000 47.375000 60.848000 63.497002 # O
573 2 0.417000 47.356998 59.880001 63.813999 # H
574 2 0.417000 47.869999 60.790001 62.686001 # H
575 4 -0.834000 34.577999 58.500000 46.123001 # O
576 2 0.417000 34.823002 58.102001 46.916000 # H
577 2 0.417000 34.688999 59.467999 46.331001 # H
578 4 -0.834000 29.740000 60.964001 40.224998 # O
579 2 0.417000 28.736000 61.030998 40.186001 # H
580 2 0.417000 29.910999 60.396000 41.007999 # H
581 4 -0.834000 48.734001 59.060001 58.422001 # O
582 2 0.417000 48.078999 58.578999 57.808998 # H
583 2 0.417000 49.252998 59.651001 57.875000 # H
584 4 -0.834000 28.722000 25.900999 43.044998 # O
585 2 0.417000 28.400999 25.000000 42.805000 # H
586 2 0.417000 29.480000 26.017000 42.456001 # H
587 4 -0.834000 33.331001 26.820000 48.512001 # O
588 2 0.417000 33.859001 27.496000 48.926998 # H
589 2 0.417000 33.567001 26.054001 49.002998 # H
590 4 -0.834000 29.864000 27.017000 62.007000 # O
591 2 0.417000 29.913000 27.934000 61.729000 # H
592 2 0.417000 28.990000 26.743999 61.611000 # H
593 4 -0.834000 38.679001 28.153000 48.348999 # O
594 2 0.417000 38.875999 28.344000 49.301998 # H
595 2 0.417000 38.102001 27.403999 48.464001 # H
596 4 -0.834000 54.872002 33.526001 33.145000 # O
597 2 0.417000 54.488998 32.712002 32.770000 # H
598 2 0.417000 55.849998 33.359001 33.019001 # H
599 4 -0.834000 30.164000 23.138000 57.344002 # O
600 2 0.417000 29.438999 22.523001 57.175999 # H