LAMMPS data file. CGCMM style. atom_style charge generated by VMD/TopoTools v1.7 on Sat Sep 25 03:14:47 EDT 2021
 2419 atoms
 0 bonds
 0 angles
 0 dihedrals
 0 impropers
 5 atom types
 0 bond types
 0 angle types
 0 dihedral types
 0 improper types
 -15.112500 14.887500  xlo xhi
 -15.039001 14.960999  ylo yhi
 -14.898500 15.101500  zlo zhi

# Pair Coeffs
#
# 1  C
# 2  H
# 3  N
# 4  O
# 5  P

 Masses

 1 12.011000 # C
 2 1.008000 # H
 3 14.007000 # N
 4 15.999400 # O
 5 30.973801 # P

 Atoms # charge

1 1 0.110000 -1.831000 -0.309000 1.584000 # C
2 2 0.090000 -2.275000 -1.304000 1.550000 # H
3 4 -0.400000 -0.542000 -0.355000 2.234000 # O
4 1 0.110000 -0.830000 -0.418000 3.647000 # C
5 2 0.090000 -1.119000 -1.430000 3.931000 # H
6 1 0.280000 1.833000 0.300000 6.033000 # C
7 3 -0.710000 2.184000 1.042000 4.955000 # N
8 1 0.340000 1.302000 0.879000 4.012000 # C
9 2 0.120000 1.334000 1.357000 3.044000 # H
10 3 -0.050000 0.332000 0.015000 4.425000 # N
11 3 -0.740000 1.763000 -0.747000 8.135000 # N
12 1 0.500000 0.644000 -1.352000 7.783000 # C
13 2 0.130000 0.166000 -2.014000 8.490000 # H
14 3 -0.750000 0.088000 -1.178000 6.602000 # N
15 1 0.430000 0.644000 -0.371000 5.704000 # C
16 1 0.460000 2.391000 0.077000 7.303000 # C
17 3 -0.770000 3.564000 0.706000 7.681000 # N
18 2 0.380000 3.939000 0.530000 8.602000 # H
19 2 0.380000 4.019000 1.327000 7.027000 # H
20 1 0.140000 -2.011000 0.555000 3.856000 # C
21 2 0.090000 -1.635000 1.453000 4.085000 # H
22 4 -0.650000 -2.926000 0.043000 4.827000 # O
23 2 0.420000 -3.681000 0.670000 4.869000 # H
24 1 0.140000 -2.683000 0.630000 2.465000 # C
25 2 0.090000 -2.651000 1.649000 2.078000 # H
26 4 -0.650000 -4.033000 0.165000 2.534000 # O
27 2 0.420000 -3.972000 -0.797000 2.577000 # H
28 1 -0.080000 -1.694000 0.260000 0.170000 # C
29 2 0.090000 -2.615000 0.239000 -0.218000 # H
30 2 0.090000 -1.253000 1.150000 0.281000 # H
31 4 -0.620000 -0.844000 -0.587000 -0.604000 # O
32 5 1.500000 -0.745000 0.068000 -2.071000 # P
33 4 -0.820000 -2.097000 0.143000 -2.669000 # O
34 4 -0.820000 -0.125000 1.549000 -1.957000 # O
35 4 -0.740000 0.203000 -0.840000 -3.002000 # O
36 5 1.500000 0.255000 -0.130000 -4.446000 # P
37 4 -0.820000 0.810000 1.234000 -4.304000 # O
38 4 -0.820000 -1.231000 -0.044000 -5.057000 # O
39 4 -0.860000 1.192000 -0.990000 -5.433000 # O
40 5 1.100000 1.200000 -0.226000 -6.850000 # P
41 4 -0.900000 1.740000 1.140000 -6.672000 # O
42 4 -0.900000 2.123000 -1.036000 -7.891000 # O
43 4 -0.900000 -0.302000 -0.139000 -7.421000 # O
44 4 -0.834000 -11.332000 -4.918000 0.904000 # O
45 2 0.417000 -11.776000 -4.549000 0.101000 # H
46 2 0.417000 -11.908000 -4.621000 1.627000 # H
47 4 -0.834000 -8.967000 -10.124000 5.891000 # O
48 2 0.417000 -8.922000 -9.776000 6.798000 # H
49 2 0.417000 -8.408000 -10.912000 5.961000 # H
50 4 -0.834000 -10.431000 -11.040000 14.887000 # O
51 2 0.417000 -11.041000 -11.840000 14.980000 # H
52 2 0.417000 -11.005000 -10.345000 14.422000 # H
53 4 -0.834000 -9.814000 1.696000 -2.928000 # O
54 2 0.417000 -8.917000 1.979000 -3.184000 # H
55 2 0.417000 -9.663000 0.832000 -2.510000 # H
56 4 -0.834000 -6.676000 -1.189000 6.332000 # O
57 2 0.417000 -6.367000 -1.652000 7.112000 # H
58 2 0.417000 -6.494000 -1.884000 5.645000 # H
59 4 -0.834000 -11.214000 1.318000 -13.690000 # O
60 2 0.417000 -11.219000 0.388000 -13.804000 # H
61 2 0.417000 -10.472000 1.580000 -14.219000 # H
62 4 -0.834000 -8.795000 -8.009000 3.442000 # O
63 2 0.417000 -8.218000 -7.653000 4.152000 # H
64 2 0.417000 -9.691000 -7.938000 3.800000 # H
65 4 -0.834000 1.126000 -0.299000 -10.423000 # O
66 2 0.417000 1.070000 -0.728000 -11.274000 # H
67 2 0.417000 1.805000 0.454000 -10.555000 # H
68 4 -0.834000 -12.250000 -6.156000 -5.371000 # O
69 2 0.417000 -12.890000 -6.710000 -5.002000 # H
70 2 0.417000 -12.836000 -5.755000 -6.038000 # H
71 4 -0.834000 -11.065000 1.195000 7.109000 # O
72 2 0.417000 -10.130000 1.034000 6.985000 # H
73 2 0.417000 -11.345000 0.367000 7.581000 # H
74 4 -0.834000 -12.009000 -3.838000 12.860000 # O
75 2 0.417000 -11.406000 -4.032000 12.129000 # H
76 2 0.417000 -12.586000 -3.225000 12.430000 # H
77 4 -0.834000 -10.760000 -7.963000 12.081000 # O
78 2 0.417000 -10.344000 -7.169000 11.658000 # H
79 2 0.417000 -11.214000 -7.572000 12.812000 # H
80 4 -0.834000 -4.326000 -6.091000 -10.014000 # O
81 2 0.417000 -4.002000 -6.129000 -9.068000 # H
82 2 0.417000 -5.252000 -5.730000 -9.925000 # H
83 4 -0.834000 -14.998000 -9.333000 -0.409000 # O
84 2 0.417000 -14.517000 -9.010000 -1.170000 # H
85 2 0.417000 -14.392000 -9.219000 0.347000 # H
86 4 -0.834000 -5.118000 -5.844000 -0.084000 # O
87 2 0.417000 -5.426000 -5.247000 0.597000 # H
88 2 0.417000 -4.979000 -6.736000 0.289000 # H
89 4 -0.834000 -8.684000 -9.712000 12.495000 # O
90 2 0.417000 -8.360000 -9.369000 13.363000 # H
91 2 0.417000 -9.437000 -9.148000 12.280000 # H
92 4 -0.834000 -2.111000 14.660000 -5.913000 # O
93 2 0.417000 -2.422000 14.796000 -5.025000 # H
94 2 0.417000 -1.236000 14.337000 -5.788000 # H
95 4 -0.834000 -13.339000 -8.319000 -13.057000 # O
96 2 0.417000 -13.057000 -9.261000 -13.019000 # H
97 2 0.417000 -14.222000 -8.401000 -13.517000 # H
98 4 -0.834000 -10.179000 5.603000 -3.761000 # O
99 2 0.417000 -9.534000 5.782000 -3.037000 # H
100 2 0.417000 -9.616000 5.914000 -4.544000 # H
101 4 -0.834000 0.022000 5.855000 -2.169000 # O
102 2 0.417000 -0.778000 5.809000 -1.708000 # H
103 2 0.417000 -0.327000 6.057000 -3.082000 # H
104 4 -0.834000 -13.661000 -11.218000 7.814000 # O
105 2 0.417000 -14.161000 -11.575000 7.087000 # H
106 2 0.417000 -13.225000 -11.923000 8.138000 # H
107 4 -0.834000 -14.515000 0.137000 7.476000 # O
108 2 0.417000 -14.356000 0.425000 8.349000 # H
109 2 0.417000 -14.688000 0.961000 6.975000 # H
110 4 -0.834000 -9.392000 8.918000 -2.041000 # O
111 2 0.417000 -10.160000 8.622000 -2.455000 # H
112 2 0.417000 -8.963000 9.336000 -2.792000 # H
113 4 -0.834000 -4.574000 -7.396000 -12.596000 # O
114 2 0.417000 -4.239000 -6.599000 -13.006000 # H
115 2 0.417000 -4.752000 -7.111000 -11.692000 # H
116 4 -0.834000 -6.431000 10.684000 -2.789000 # O
117 2 0.417000 -5.877000 10.542000 -1.985000 # H
118 2 0.417000 -6.195000 11.595000 -3.073000 # H
119 4 -0.834000 -10.731000 7.752000 1.265000 # O
120 2 0.417000 -10.851000 8.680000 0.888000 # H
121 2 0.417000 -9.939000 7.796000 1.776000 # H
122 4 -0.834000 -11.401000 -1.311000 8.583000 # O
123 2 0.417000 -11.570000 -2.124000 9.062000 # H
124 2 0.417000 -10.439000 -1.231000 8.661000 # H
125 4 -0.834000 4.952000 -13.039000 11.164000 # O
126 2 0.417000 5.414000 -13.921000 11.079000 # H
127 2 0.417000 5.667000 -12.347000 11.013000 # H
128 4 -0.834000 7.572000 -8.758000 -11.522000 # O
129 2 0.417000 6.705000 -9.155000 -11.170000 # H
130 2 0.417000 7.951000 -9.341000 -12.142000 # H
131 4 -0.834000 -7.218000 13.346000 5.641000 # O
132 2 0.417000 -6.345000 13.234000 6.114000 # H
133 2 0.417000 -7.331000 14.295000 5.444000 # H
134 4 -0.834000 -4.074000 -9.635000 -13.982000 # O
135 2 0.417000 -3.862000 -10.231000 -13.246000 # H
136 2 0.417000 -4.343000 -8.788000 -13.507000 # H
137 4 -0.834000 -6.353000 -10.686000 4.278000 # O
138 2 0.417000 -7.036000 -11.389000 4.326000 # H
139 2 0.417000 -6.957000 -9.936000 4.153000 # H
140 4 -0.834000 -6.619000 2.319000 8.275000 # O
141 2 0.417000 -7.484000 2.340000 8.695000 # H
142 2 0.417000 -6.569000 3.263000 8.009000 # H
143 4 -0.834000 -10.658000 -3.612000 10.271000 # O
144 2 0.417000 -10.158000 -4.303000 10.678000 # H
145 2 0.417000 -10.097000 -2.852000 10.578000 # H
146 4 -0.834000 -13.330000 0.675000 14.166000 # O
147 2 0.417000 -12.880000 0.950000 14.974000 # H
148 2 0.417000 -14.237000 0.517000 14.468000 # H
149 4 -0.834000 1.470000 13.089000 -12.819000 # O
150 2 0.417000 1.854000 12.230000 -12.501000 # H
151 2 0.417000 0.533000 12.856000 -12.912000 # H
152 4 -0.834000 -14.198000 10.084000 -9.477000 # O
153 2 0.417000 -14.421000 11.065000 -9.495000 # H
154 2 0.417000 -13.205000 10.163000 -9.555000 # H
155 4 -0.834000 -10.701000 2.774000 -7.831000 # O
156 2 0.417000 -11.697000 2.803000 -7.678000 # H
157 2 0.417000 -10.467000 3.755000 -8.076000 # H
158 4 -0.834000 -6.108000 -2.023000 -9.679000 # O
159 2 0.417000 -6.881000 -2.522000 -9.557000 # H
160 2 0.417000 -5.658000 -2.443000 -10.464000 # H
161 4 -0.834000 -12.292000 5.969000 9.504000 # O
162 2 0.417000 -12.411000 5.945000 8.556000 # H
163 2 0.417000 -11.877000 6.835000 9.549000 # H
164 4 -0.834000 -12.826000 3.468000 -12.788000 # O
165 2 0.417000 -12.368000 2.628000 -12.797000 # H
166 2 0.417000 -12.069000 4.120000 -12.719000 # H
167 4 -0.834000 3.870000 6.460000 13.971000 # O
168 2 0.417000 2.903000 6.288000 13.721000 # H
169 2 0.417000 4.074000 5.691000 14.591000 # H
170 4 -0.834000 -14.435000 14.252000 -13.417000 # O
171 2 0.417000 -13.537000 14.562000 -13.264000 # H
172 2 0.417000 -14.414000 13.335000 -13.212000 # H
173 4 -0.834000 -13.713000 9.132000 8.737000 # O
174 2 0.417000 -13.765000 8.924000 9.731000 # H
175 2 0.417000 -12.912000 9.709000 8.639000 # H
176 4 -0.834000 -8.635000 -12.326000 13.059000 # O
177 2 0.417000 -9.201000 -11.563000 12.849000 # H
178 2 0.417000 -7.825000 -11.945000 13.403000 # H
179 4 -0.834000 0.414000 -8.431000 -12.499000 # O
180 2 0.417000 1.224000 -8.142000 -12.872000 # H
181 2 0.417000 -0.192000 -8.300000 -13.329000 # H
182 4 -0.834000 -5.065000 -2.124000 -4.809000 # O
183 2 0.417000 -5.291000 -2.902000 -5.366000 # H
184 2 0.417000 -5.528000 -2.234000 -3.982000 # H
185 4 -0.834000 -7.940000 -12.926000 4.830000 # O
186 2 0.417000 -7.350000 -13.381000 5.528000 # H
187 2 0.417000 -8.852000 -13.204000 5.035000 # H
188 4 -0.834000 -1.109000 -13.081000 -12.008000 # O
189 2 0.417000 -0.802000 -12.319000 -11.578000 # H
190 2 0.417000 -1.788000 -13.423000 -11.422000 # H
191 4 -0.834000 -6.177000 -4.419000 -6.173000 # O
192 2 0.417000 -6.817000 -4.247000 -6.852000 # H
193 2 0.417000 -6.611000 -4.939000 -5.466000 # H
194 4 -0.834000 -5.922000 -3.033000 -2.266000 # O
195 2 0.417000 -6.772000 -3.439000 -2.007000 # H
196 2 0.417000 -5.488000 -2.806000 -1.440000 # H
197 4 -0.834000 -4.718000 -14.360000 -12.947000 # O
198 2 0.417000 -4.633000 -14.041000 -11.984000 # H
199 2 0.417000 -5.257000 -13.677000 -13.333000 # H
200 4 -0.834000 -10.382000 -6.875000 -7.223000 # O
201 2 0.417000 -9.595000 -7.081000 -6.686000 # H
202 2 0.417000 -10.998000 -6.542000 -6.578000 # H
203 4 -0.834000 -11.597000 -10.313000 -5.185000 # O
204 2 0.417000 -11.891000 -9.728000 -5.903000 # H
205 2 0.417000 -11.183000 -11.027000 -5.673000 # H
206 4 -0.834000 -11.724000 -7.535000 4.325000 # O
207 2 0.417000 -12.228000 -8.009000 4.964000 # H
208 2 0.417000 -11.396000 -6.712000 4.753000 # H
209 4 -0.834000 -13.160000 -6.735000 13.662000 # O
210 2 0.417000 -13.320000 -6.956000 12.747000 # H
211 2 0.417000 -13.166000 -5.789000 13.733000 # H
212 4 -0.834000 -5.022000 -7.125000 9.948000 # O
213 2 0.417000 -5.411000 -7.374000 10.845000 # H
214 2 0.417000 -4.564000 -6.344000 10.187000 # H
215 4 -0.834000 -11.881000 -4.675000 -1.842000 # O
216 2 0.417000 -11.402000 -4.100000 -2.488000 # H
217 2 0.417000 -11.560000 -5.570000 -2.038000 # H
218 4 -0.834000 -12.622000 -9.194000 1.253000 # O
219 2 0.417000 -12.843000 -8.839000 2.099000 # H
220 2 0.417000 -11.699000 -8.968000 1.126000 # H
221 4 -0.834000 -8.618000 7.271000 -12.681000 # O
222 2 0.417000 -9.450000 7.035000 -13.153000 # H
223 2 0.417000 -8.141000 6.472000 -12.808000 # H
224 4 -0.834000 -10.983000 -11.095000 4.418000 # O
225 2 0.417000 -11.858000 -10.958000 4.132000 # H
226 2 0.417000 -10.418000 -10.273000 4.295000 # H
227 4 -0.834000 -12.656000 5.472000 6.631000 # O
228 2 0.417000 -12.068000 5.821000 5.945000 # H
229 2 0.417000 -13.533000 5.548000 6.138000 # H
230 4 -0.834000 5.613000 -1.384000 -3.934000 # O
231 2 0.417000 5.739000 -1.041000 -4.782000 # H
232 2 0.417000 4.619000 -1.184000 -3.750000 # H
233 4 -0.834000 -13.213000 -5.482000 9.515000 # O
234 2 0.417000 -12.868000 -5.425000 8.646000 # H
235 2 0.417000 -13.140000 -4.594000 9.787000 # H
236 4 -0.834000 -0.474000 -4.468000 5.137000 # O
237 2 0.417000 -0.838000 -5.267000 5.503000 # H
238 2 0.417000 -0.534000 -4.580000 4.194000 # H
239 4 -0.834000 11.124000 1.594000 1.807000 # O
240 2 0.417000 11.948000 1.864000 2.244000 # H
241 2 0.417000 11.137000 2.048000 0.900000 # H
242 4 -0.834000 -6.124000 13.437000 -9.421000 # O
243 2 0.417000 -5.773000 12.577000 -9.642000 # H
244 2 0.417000 -6.210000 13.398000 -8.467000 # H
245 4 -0.834000 -9.427000 -0.196000 4.090000 # O
246 2 0.417000 -9.041000 0.339000 4.808000 # H
247 2 0.417000 -9.131000 0.413000 3.331000 # H
248 4 -0.834000 1.283000 -7.646000 7.781000 # O
249 2 0.417000 0.640000 -6.942000 7.449000 # H
250 2 0.417000 0.973000 -8.440000 7.379000 # H
251 4 -0.834000 7.872000 3.441000 1.788000 # O
252 2 0.417000 7.201000 2.864000 1.379000 # H
253 2 0.417000 7.335000 3.981000 2.425000 # H
254 4 -0.834000 -9.542000 -1.903000 -10.411000 # O
255 2 0.417000 -9.327000 -1.981000 -11.388000 # H
256 2 0.417000 -10.101000 -1.106000 -10.343000 # H
257 4 -0.834000 12.849000 -5.132000 4.173000 # O
258 2 0.417000 12.170000 -5.280000 4.863000 # H
259 2 0.417000 12.403000 -4.581000 3.489000 # H
260 4 -0.834000 -10.448000 -13.630000 5.330000 # O
261 2 0.417000 -10.726000 -12.806000 4.953000 # H
262 2 0.417000 -10.765000 -14.199000 4.571000 # H
263 4 -0.834000 -10.406000 10.266000 0.200000 # O
264 2 0.417000 -11.362000 10.500000 0.196000 # H
265 2 0.417000 -10.242000 9.897000 -0.688000 # H
266 4 -0.834000 -4.034000 -14.513000 12.664000 # O
267 2 0.417000 -4.165000 -13.577000 12.475000 # H
268 2 0.417000 -4.442000 -14.908000 11.883000 # H
269 4 -0.834000 -9.840000 -1.256000 -7.046000 # O
270 2 0.417000 -8.952000 -1.578000 -6.793000 # H
271 2 0.417000 -9.992000 -0.507000 -6.472000 # H
272 4 -0.834000 -4.610000 -8.614000 3.828000 # O
273 2 0.417000 -4.312000 -8.516000 4.731000 # H
274 2 0.417000 -5.156000 -9.411000 3.921000 # H
275 4 -0.834000 -13.322000 6.942000 -13.965000 # O
276 2 0.417000 -13.728000 6.280000 -13.408000 # H
277 2 0.417000 -13.502000 7.809000 -13.507000 # H
278 4 -0.834000 -5.370000 6.547000 -12.000000 # O
279 2 0.417000 -5.399000 7.471000 -12.357000 # H
280 2 0.417000 -5.713000 5.954000 -12.688000 # H
281 4 -0.834000 -10.609000 14.423000 6.120000 # O
282 2 0.417000 -11.237000 13.799000 6.511000 # H
283 2 0.417000 -10.406000 14.044000 5.208000 # H
284 4 -0.834000 -12.656000 -4.429000 -12.376000 # O
285 2 0.417000 -12.878000 -4.247000 -11.447000 # H
286 2 0.417000 -12.053000 -5.209000 -12.383000 # H
287 4 -0.834000 -12.418000 12.635000 7.063000 # O
288 2 0.417000 -13.174000 12.334000 7.610000 # H
289 2 0.417000 -12.859000 12.873000 6.227000 # H
290 4 -0.834000 -14.177000 8.668000 -12.112000 # O
291 2 0.417000 -13.364000 8.316000 -11.660000 # H
292 2 0.417000 -14.747000 8.978000 -11.360000 # H
293 4 -0.834000 -12.917000 13.332000 -7.674000 # O
294 2 0.417000 -13.442000 13.514000 -6.885000 # H
295 2 0.417000 -13.504000 12.737000 -8.189000 # H
296 4 -0.834000 -1.780000 9.494000 -1.908000 # O
297 2 0.417000 -2.109000 10.383000 -1.713000 # H
298 2 0.417000 -1.944000 8.918000 -1.147000 # H
299 4 -0.834000 -14.005000 13.021000 -4.985000 # O
300 2 0.417000 -14.987000 12.981000 -4.957000 # H
301 2 0.417000 -13.702000 12.119000 -4.737000 # H
302 4 -0.834000 -12.290000 -8.815000 -7.460000 # O
303 2 0.417000 -12.533000 -8.764000 -8.439000 # H
304 2 0.417000 -11.590000 -8.145000 -7.420000 # H
305 4 -0.834000 -8.089000 4.458000 2.335000 # O
306 2 0.417000 -7.483000 5.118000 1.957000 # H
307 2 0.417000 -8.685000 4.136000 1.588000 # H
308 4 -0.834000 -9.821000 5.890000 12.387000 # O
309 2 0.417000 -10.382000 6.606000 12.646000 # H
310 2 0.417000 -9.804000 5.211000 13.107000 # H
311 4 -0.834000 1.192000 7.403000 -11.218000 # O
312 2 0.417000 1.363000 7.881000 -10.378000 # H
313 2 0.417000 1.427000 8.065000 -11.914000 # H
314 4 -0.834000 -1.460000 7.220000 -12.252000 # O
315 2 0.417000 -2.035000 7.475000 -11.538000 # H
316 2 0.417000 -0.572000 7.404000 -11.926000 # H
317 4 -0.834000 -6.819000 8.465000 -7.363000 # O
318 2 0.417000 -5.993000 8.937000 -7.297000 # H
319 2 0.417000 -7.483000 9.117000 -7.688000 # H
320 4 -0.834000 -4.071000 -0.250000 -9.282000 # O
321 2 0.417000 -4.950000 -0.459000 -9.592000 # H
322 2 0.417000 -3.599000 -1.121000 -9.283000 # H
323 4 -0.834000 4.659000 10.552000 2.449000 # O
324 2 0.417000 5.182000 11.346000 2.499000 # H
325 2 0.417000 3.734000 10.858000 2.381000 # H
326 4 -0.834000 -12.914000 10.452000 3.194000 # O
327 2 0.417000 -12.826000 10.923000 2.394000 # H
328 2 0.417000 -13.728000 10.869000 3.604000 # H
329 4 -0.834000 -13.317000 10.667000 11.332000 # O
330 2 0.417000 -12.420000 10.907000 11.426000 # H
331 2 0.417000 -13.515000 10.227000 12.126000 # H
332 4 -0.834000 8.331000 6.619000 3.069000 # O
333 2 0.417000 8.137000 7.516000 3.456000 # H
334 2 0.417000 7.663000 5.985000 3.450000 # H
335 4 -0.834000 -11.210000 8.318000 11.067000 # O
336 2 0.417000 -10.889000 8.684000 11.901000 # H
337 2 0.417000 -12.165000 8.196000 11.248000 # H
338 4 -0.834000 -14.253000 -10.531000 -4.421000 # O
339 2 0.417000 -14.574000 -11.432000 -4.661000 # H
340 2 0.417000 -13.495000 -10.415000 -5.010000 # H
341 4 -0.834000 -9.644000 -9.612000 1.046000 # O
342 2 0.417000 -9.116000 -8.936000 1.461000 # H
343 2 0.417000 -9.408000 -10.378000 1.537000 # H
344 4 -0.834000 -13.111000 -9.415000 14.541000 # O
345 2 0.417000 -13.062000 -8.498000 14.263000 # H
346 2 0.417000 -13.985000 -9.688000 14.145000 # H
347 4 -0.834000 -4.296000 -8.279000 0.883000 # O
348 2 0.417000 -4.099000 -8.088000 1.836000 # H
349 2 0.417000 -4.873000 -9.028000 0.998000 # H
350 4 -0.834000 11.897000 -2.906000 -14.321000 # O
351 2 0.417000 11.514000 -3.720000 -14.696000 # H
352 2 0.417000 12.875000 -3.073000 -14.447000 # H
353 4 -0.834000 -12.811000 -13.294000 9.878000 # O
354 2 0.417000 -13.536000 -13.909000 9.710000 # H
355 2 0.417000 -12.875000 -13.195000 10.900000 # H
356 4 -0.834000 -3.237000 4.614000 -5.042000 # O
357 2 0.417000 -2.721000 5.405000 -5.134000 # H
358 2 0.417000 -2.565000 3.905000 -5.099000 # H
359 4 -0.834000 -7.136000 -4.397000 13.950000 # O
360 2 0.417000 -7.531000 -3.725000 14.507000 # H
361 2 0.417000 -7.846000 -5.008000 13.783000 # H
362 4 -0.834000 -7.973000 -12.776000 -1.589000 # O
363 2 0.417000 -8.815000 -12.199000 -1.465000 # H
364 2 0.417000 -8.308000 -13.597000 -1.258000 # H
365 4 -0.834000 2.812000 -9.229000 -9.124000 # O
366 2 0.417000 2.220000 -8.684000 -9.620000 # H
367 2 0.417000 2.551000 -10.131000 -9.331000 # H
368 4 -0.834000 -10.972000 -7.301000 -2.224000 # O
369 2 0.417000 -10.423000 -7.807000 -2.862000 # H
370 2 0.417000 -11.829000 -7.680000 -2.456000 # H
371 4 -0.834000 -3.951000 -5.120000 11.882000 # O
372 2 0.417000 -3.605000 -5.519000 12.655000 # H
373 2 0.417000 -3.095000 -4.905000 11.383000 # H
374 4 -0.834000 7.133000 -12.114000 4.843000 # O
375 2 0.417000 7.929000 -12.404000 5.262000 # H
376 2 0.417000 6.486000 -12.172000 5.561000 # H
377 4 -0.834000 -2.507000 -5.549000 -12.785000 # O
378 2 0.417000 -2.092000 -5.160000 -12.013000 # H
379 2 0.417000 -2.018000 -6.359000 -12.961000 # H
380 4 -0.834000 -3.823000 -5.390000 -7.072000 # O
381 2 0.417000 -4.557000 -4.828000 -6.947000 # H
382 2 0.417000 -4.134000 -6.212000 -6.702000 # H
383 4 -0.834000 -13.162000 -11.794000 0.398000 # O
384 2 0.417000 -12.799000 -10.919000 0.545000 # H
385 2 0.417000 -12.883000 -12.001000 -0.578000 # H
386 4 -0.834000 -13.101000 -3.376000 2.893000 # O
387 2 0.417000 -13.861000 -3.322000 2.305000 # H
388 2 0.417000 -12.742000 -2.465000 2.855000 # H
389 4 -0.834000 -11.542000 -5.132000 7.419000 # O
390 2 0.417000 -10.602000 -4.984000 7.654000 # H
391 2 0.417000 -11.552000 -4.811000 6.495000 # H
392 4 -0.834000 -12.076000 -10.857000 11.959000 # O
393 2 0.417000 -11.442000 -10.454000 11.376000 # H
394 2 0.417000 -12.335000 -10.170000 12.592000 # H
395 4 -0.834000 3.441000 1.134000 -11.160000 # O
396 2 0.417000 3.610000 1.488000 -12.032000 # H
397 2 0.417000 4.113000 0.407000 -11.039000 # H
398 4 -0.834000 0.430000 -11.726000 -7.593000 # O
399 2 0.417000 0.458000 -12.259000 -6.843000 # H
400 2 0.417000 0.933000 -12.260000 -8.230000 # H
401 4 -0.834000 -1.866000 -10.465000 -8.441000 # O
402 2 0.417000 -2.566000 -11.068000 -8.062000 # H
403 2 0.417000 -1.041000 -10.838000 -8.035000 # H
404 4 -0.834000 -9.292000 -10.574000 9.418000 # O
405 2 0.417000 -8.998000 -10.297000 10.300000 # H
406 2 0.417000 -9.843000 -9.832000 9.144000 # H
407 4 -0.834000 1.321000 4.495000 0.870000 # O
408 2 0.417000 1.960000 4.159000 0.192000 # H
409 2 0.417000 1.854000 5.132000 1.388000 # H
410 4 -0.834000 0.398000 -13.448000 3.246000 # O
411 2 0.417000 1.016000 -13.049000 2.566000 # H
412 2 0.417000 -0.426000 -12.989000 3.109000 # H
413 4 -0.834000 -7.170000 4.751000 -13.005000 # O
414 2 0.417000 -7.743000 4.870000 -13.753000 # H
415 2 0.417000 -6.671000 3.923000 -13.115000 # H
416 4 -0.834000 -1.337000 11.432000 -8.471000 # O
417 2 0.417000 -1.149000 11.261000 -7.518000 # H
418 2 0.417000 -1.645000 12.375000 -8.468000 # H
419 4 -0.834000 4.530000 4.813000 9.413000 # O
420 2 0.417000 5.399000 5.251000 9.331000 # H
421 2 0.417000 4.755000 3.876000 9.418000 # H
422 4 -0.834000 -4.726000 -3.552000 5.959000 # O
423 2 0.417000 -4.107000 -3.927000 6.654000 # H
424 2 0.417000 -4.656000 -4.109000 5.238000 # H
425 4 -0.834000 -3.527000 -8.925000 6.702000 # O
426 2 0.417000 -2.954000 -9.333000 7.431000 # H
427 2 0.417000 -4.446000 -9.061000 7.100000 # H
428 4 -0.834000 -6.682000 0.284000 10.150000 # O
429 2 0.417000 -6.010000 0.079000 10.736000 # H
430 2 0.417000 -6.264000 0.953000 9.564000 # H
431 4 -0.834000 -1.088000 11.462000 -12.714000 # O
432 2 0.417000 -1.333000 12.388000 -12.461000 # H
433 2 0.417000 -1.512000 10.916000 -12.000000 # H
434 4 -0.834000 6.008000 -11.730000 0.173000 # O
435 2 0.417000 5.390000 -10.964000 0.084000 # H
436 2 0.417000 6.768000 -11.408000 -0.251000 # H
437 4 -0.834000 -8.200000 1.659000 2.184000 # O
438 2 0.417000 -7.857000 1.649000 1.327000 # H
439 2 0.417000 -7.891000 2.502000 2.568000 # H
440 4 -0.834000 -9.220000 2.516000 9.024000 # O
441 2 0.417000 -9.894000 2.326000 8.341000 # H
442 2 0.417000 -9.250000 3.485000 9.094000 # H
443 4 -0.834000 9.714000 6.300000 13.954000 # O
444 2 0.417000 9.446000 6.591000 13.048000 # H
445 2 0.417000 10.209000 7.035000 14.317000 # H
446 4 -0.834000 -0.397000 3.110000 -11.787000 # O
447 2 0.417000 -0.725000 2.655000 -11.037000 # H
448 2 0.417000 -1.158000 3.606000 -12.122000 # H
449 4 -0.834000 -10.247000 5.139000 -9.525000 # O
450 2 0.417000 -10.231000 6.053000 -9.154000 # H
451 2 0.417000 -9.337000 5.031000 -9.799000 # H
452 4 -0.834000 -5.750000 7.403000 13.404000 # O
453 2 0.417000 -6.576000 7.852000 13.305000 # H
454 2 0.417000 -5.857000 6.926000 14.253000 # H
455 4 -0.834000 -13.385000 2.355000 -0.645000 # O
456 2 0.417000 -13.775000 1.480000 -0.580000 # H
457 2 0.417000 -14.141000 2.984000 -0.949000 # H
458 4 -0.834000 7.578000 8.665000 8.229000 # O
459 2 0.417000 8.396000 8.499000 7.734000 # H
460 2 0.417000 6.920000 8.775000 7.561000 # H
461 4 -0.834000 -5.216000 3.060000 1.439000 # O
462 2 0.417000 -4.424000 3.166000 0.922000 # H
463 2 0.417000 -5.059000 3.584000 2.234000 # H
464 4 -0.834000 -12.631000 4.620000 -4.162000 # O
465 2 0.417000 -12.949000 4.425000 -3.299000 # H
466 2 0.417000 -11.653000 4.717000 -4.077000 # H
467 4 -0.834000 0.158000 0.218000 -13.547000 # O
468 2 0.417000 0.286000 1.123000 -13.840000 # H
469 2 0.417000 -0.825000 0.219000 -13.413000 # H
470 4 -0.834000 -7.071000 -5.399000 -10.678000 # O
471 2 0.417000 -7.636000 -4.660000 -11.088000 # H
472 2 0.417000 -7.682000 -5.989000 -10.180000 # H
473 4 -0.834000 -4.791000 11.935000 -13.027000 # O
474 2 0.417000 -5.603000 12.288000 -13.480000 # H
475 2 0.417000 -4.477000 12.672000 -12.376000 # H
476 4 -0.834000 -7.875000 11.008000 1.205000 # O
477 2 0.417000 -7.695000 11.912000 0.994000 # H
478 2 0.417000 -8.715000 10.889000 0.734000 # H
479 4 -0.834000 -3.415000 8.121000 4.455000 # O
480 2 0.417000 -2.587000 8.205000 4.982000 # H
481 2 0.417000 -4.184000 8.266000 5.095000 # H
482 4 -0.834000 6.033000 12.960000 2.593000 # O
483 2 0.417000 6.033000 13.956000 2.621000 # H
484 2 0.417000 6.925000 12.777000 2.175000 # H
485 4 -0.834000 -8.751000 12.735000 -1.332000 # O
486 2 0.417000 -8.537000 13.358000 -2.002000 # H
487 2 0.417000 -7.910000 12.243000 -1.152000 # H
488 4 -0.834000 -1.245000 10.794000 -5.480000 # O
489 2 0.417000 -2.174000 10.669000 -5.233000 # H
490 2 0.417000 -0.852000 10.751000 -4.626000 # H
491 4 -0.834000 -9.020000 12.548000 8.471000 # O
492 2 0.417000 -8.723000 13.300000 8.032000 # H
493 2 0.417000 -9.003000 12.744000 9.375000 # H
494 4 -0.834000 -8.262000 8.712000 11.178000 # O
495 2 0.417000 -7.917000 9.220000 10.441000 # H
496 2 0.417000 -9.093000 8.381000 10.843000 # H
497 4 -0.834000 -8.297000 11.593000 -10.152000 # O
498 2 0.417000 -7.593000 12.207000 -10.239000 # H
499 2 0.417000 -8.284000 11.068000 -10.987000 # H
500 4 -0.834000 6.371000 2.885000 -9.125000 # O
501 2 0.417000 5.731000 2.190000 -8.799000 # H
502 2 0.417000 7.157000 2.771000 -8.621000 # H
503 4 -0.834000 6.052000 -0.510000 -10.708000 # O
504 2 0.417000 5.664000 -0.975000 -9.991000 # H
505 2 0.417000 6.791000 0.006000 -10.253000 # H
506 4 -0.834000 -3.935000 13.816000 9.528000 # O
507 2 0.417000 -4.687000 13.525000 10.001000 # H
508 2 0.417000 -3.280000 13.079000 9.603000 # H
509 4 -0.834000 -6.893000 14.357000 10.179000 # O
510 2 0.417000 -7.419000 14.729000 10.895000 # H
511 2 0.417000 -6.572000 13.414000 10.546000 # H
512 4 -0.834000 -6.212000 -11.706000 9.627000 # O
513 2 0.417000 -7.126000 -11.430000 9.750000 # H
514 2 0.417000 -5.829000 -11.091000 9.019000 # H
515 4 -0.834000 -11.680000 -13.561000 -11.307000 # O
516 2 0.417000 -11.982000 -13.737000 -12.205000 # H
517 2 0.417000 -10.782000 -13.263000 -11.467000 # H
518 4 -0.834000 1.096000 -6.595000 -4.372000 # O
519 2 0.417000 1.085000 -5.610000 -4.285000 # H
520 2 0.417000 1.077000 -6.652000 -5.379000 # H
521 4 -0.834000 -6.622000 7.836000 -0.926000 # O
522 2 0.417000 -5.873000 8.085000 -1.522000 # H
523 2 0.417000 -7.194000 8.652000 -0.888000 # H
524 4 -0.834000 -4.574000 4.542000 12.064000 # O
525 2 0.417000 -5.532000 4.388000 12.335000 # H
526 2 0.417000 -4.347000 3.803000 11.429000 # H
527 4 -0.834000 3.479000 -11.911000 -13.622000 # O
528 2 0.417000 2.536000 -11.792000 -13.426000 # H
529 2 0.417000 3.602000 -12.860000 -13.803000 # H
530 4 -0.834000 0.529000 -9.018000 -6.481000 # O
531 2 0.417000 1.398000 -9.368000 -6.188000 # H
532 2 0.417000 0.223000 -9.667000 -7.133000 # H
533 4 -0.834000 -10.461000 -12.395000 -6.705000 # O
534 2 0.417000 -9.540000 -12.298000 -6.877000 # H
535 2 0.417000 -10.566000 -13.384000 -6.637000 # H
536 4 -0.834000 5.028000 -7.920000 -5.978000 # O
537 2 0.417000 5.675000 -7.285000 -5.918000 # H
538 2 0.417000 4.385000 -7.427000 -6.473000 # H
539 4 -0.834000 7.010000 -3.972000 3.447000 # O
540 2 0.417000 7.719000 -3.939000 2.701000 # H
541 2 0.417000 7.590000 -3.860000 4.220000 # H
542 4 -0.834000 -0.323000 -12.212000 14.301000 # O
543 2 0.417000 -0.340000 -11.370000 13.811000 # H
544 2 0.417000 -0.459000 -12.798000 13.553000 # H
545 4 -0.834000 3.350000 -8.022000 2.615000 # O
546 2 0.417000 3.415000 -7.709000 1.702000 # H
547 2 0.417000 2.398000 -7.841000 2.784000 # H
548 4 -0.834000 -6.117000 6.581000 -9.240000 # O
549 2 0.417000 -6.295000 7.232000 -8.554000 # H
550 2 0.417000 -5.643000 7.008000 -9.923000 # H
551 4 -0.834000 4.399000 -2.636000 -13.020000 # O
552 2 0.417000 4.715000 -3.501000 -13.402000 # H
553 2 0.417000 4.091000 -2.941000 -12.154000 # H
554 4 -0.834000 9.165000 -8.181000 -9.225000 # O
555 2 0.417000 8.867000 -8.390000 -10.127000 # H
556 2 0.417000 8.362000 -7.823000 -8.749000 # H
557 4 -0.834000 -8.333000 -7.453000 -5.354000 # O
558 2 0.417000 -8.897000 -8.025000 -4.704000 # H
559 2 0.417000 -7.442000 -7.708000 -4.954000 # H
560 4 -0.834000 -14.818000 8.403000 6.361000 # O
561 2 0.417000 -14.699000 8.585000 7.346000 # H
562 2 0.417000 -13.999000 7.867000 6.220000 # H
563 4 -0.834000 -3.653000 1.007000 8.148000 # O
564 2 0.417000 -3.221000 0.126000 8.087000 # H
565 2 0.417000 -4.414000 0.923000 7.581000 # H
566 4 -0.834000 -9.219000 -6.030000 10.936000 # O
567 2 0.417000 -8.821000 -5.823000 10.053000 # H
568 2 0.417000 -8.529000 -6.567000 11.363000 # H
569 4 -0.834000 -4.871000 2.485000 -8.450000 # O
570 2 0.417000 -5.769000 2.467000 -8.080000 # H
571 2 0.417000 -4.892000 1.702000 -9.015000 # H
572 4 -0.834000 7.412000 -7.394000 -2.335000 # O
573 2 0.417000 6.852000 -7.020000 -1.612000 # H
574 2 0.417000 6.958000 -8.231000 -2.507000 # H
575 4 -0.834000 -10.346000 -9.283000 -9.977000 # O
576 2 0.417000 -9.941000 -9.874000 -10.605000 # H
577 2 0.417000 -9.591000 -9.215000 -9.366000 # H
578 4 -0.834000 -9.813000 -13.301000 9.688000 # O
579 2 0.417000 -9.504000 -12.407000 9.739000 # H
580 2 0.417000 -10.831000 -13.127000 9.767000 # H
581 4 -0.834000 -9.512000 -0.745000 -1.788000 # O
582 2 0.417000 -8.721000 -0.874000 -1.291000 # H
583 2 0.417000 -10.136000 -1.009000 -1.122000 # H
584 4 -0.834000 -11.314000 -6.647000 -11.599000 # O
585 2 0.417000 -10.506000 -7.070000 -11.916000 # H
586 2 0.417000 -11.959000 -7.273000 -11.803000 # H
587 4 -0.834000 -1.035000 -7.670000 13.278000 # O
588 2 0.417000 -1.373000 -6.798000 13.654000 # H
589 2 0.417000 -0.866000 -8.292000 14.029000 # H
590 4 -0.834000 -1.737000 8.513000 -7.674000 # O
591 2 0.417000 -0.917000 8.900000 -7.311000 # H
592 2 0.417000 -1.331000 7.803000 -8.261000 # H
593 4 -0.834000 -10.711000 10.675000 -13.525000 # O
594 2 0.417000 -9.986000 10.297000 -13.091000 # H
595 2 0.417000 -11.372000 10.027000 -13.487000 # H
596 4 -0.834000 -4.970000 -3.559000 -11.566000 # O
597 2 0.417000 -5.726000 -4.173000 -11.578000 # H
598 2 0.417000 -4.467000 -3.638000 -12.339000 # H
599 4 -0.834000 -4.450000 -5.456000 -3.685000 # O
600 2 0.417000 -4.945000 -4.657000 -3.604000 # H
601 2 0.417000 -3.540000 -5.154000 -3.663000 # H
602 4 -0.834000 2.196000 3.038000 -1.223000 # O
603 2 0.417000 2.492000 2.085000 -1.250000 # H