LAMMPS data file. CGCMM style. atom_style full generated by VMD/TopoTools v1.7 on Sun Sep 26 16:00:45 EDT 2021
 16990 atoms
 16749 bonds
 29267 angles
 42213 dihedrals
 2635 impropers
 7 atom types
 1 bond types
 1 angle types
 1 dihedral types
 1 improper types
 -0.500000 0.500000  xlo xhi
 -0.500000 0.500000  ylo yhi
 -0.500000 0.500000  zlo zhi

# Pair Coeffs
#
# 1  C
# 2  H
# 3  Mg
# 4  N
# 5  O
# 6  P
# 7  S

# Bond Coeffs
#
# 1  

# Angle Coeffs
#
# 1  unknown

# Dihedral Coeffs
#
# 1  unknown

# Improper Coeffs
#
# 1  unknown

 Atoms # full

1 1 4 -0.300000 10.976000 22.778999 180.690002 # N ALA
2 1 2 0.330000 10.450000 23.360001 181.311005 # H ALA
3 1 2 0.330000 10.687000 22.940001 179.746002 # H ALA
4 1 2 0.330000 11.952000 22.973000 180.785995 # H ALA
5 1 1 0.210000 10.728000 21.344999 181.037994 # C ALA
6 1 2 0.100000 11.067000 21.128000 182.044006 # H ALA
7 1 1 -0.270000 9.235000 21.028999 180.977997 # C ALA
8 1 2 0.090000 8.688000 21.677000 181.695999 # H ALA
9 1 2 0.090000 8.826000 21.223000 179.962006 # H ALA
10 1 2 0.090000 9.030000 19.969999 181.246002 # H ALA
11 1 1 0.510000 11.514000 20.423000 180.110992 # C ALA
12 1 5 -0.510000 12.065000 19.402000 180.542007 # O ALA
13 2 4 -0.470000 11.558000 20.788000 178.830994 # N PHE
14 2 2 0.310000 11.034000 21.547001 178.447998 # H PHE
15 2 1 0.070000 12.399000 20.087000 177.867004 # C PHE
16 2 2 0.090000 13.094000 19.487000 178.442001 # H PHE
17 2 1 -0.180000 11.568000 19.171000 176.960007 # C PHE
18 2 2 0.090000 10.717000 18.756001 177.542999 # H PHE
19 2 2 0.090000 11.135000 19.738001 176.108002 # H PHE
20 2 1 0.000000 12.334000 17.986000 176.434006 # C PHE
21 2 1 -0.115000 12.820000 17.006001 177.302994 # C PHE
22 2 2 0.115000 12.644000 17.099001 178.365997 # H PHE
23 2 1 -0.115000 13.533000 15.916000 176.813004 # C PHE
24 2 2 0.115000 13.905000 15.163000 177.494003 # H PHE
25 2 1 -0.115000 13.761000 15.794000 175.440994 # C PHE
26 2 2 0.115000 14.302000 14.943000 175.054001 # H PHE
27 2 1 -0.115000 12.578000 17.851000 175.069000 # C PHE
28 2 2 0.115000 12.235000 18.611000 174.380997 # H PHE
29 2 1 -0.115000 13.281000 16.766001 174.570999 # C PHE
30 2 2 0.115000 13.455000 16.679001 173.507996 # H PHE
31 2 1 0.510000 13.229000 21.082001 177.059006 # C PHE
32 2 5 -0.510000 12.694000 21.825001 176.231003 # O PHE
33 3 4 -0.290000 14.531000 21.122000 177.335007 # N PRO
34 3 1 0.000000 15.227000 20.365999 178.393005 # C PRO
35 3 2 0.090000 15.647000 19.396000 178.042007 # H PRO
36 3 2 0.090000 14.598000 20.183001 179.294998 # H PRO
37 3 1 0.020000 15.454000 21.980000 176.591003 # C PRO
38 3 2 0.090000 15.062000 22.987000 176.505005 # H PRO
39 3 1 -0.180000 16.745001 21.912001 177.417007 # C PRO
40 3 2 0.090000 17.174999 22.923000 177.598007 # H PRO
41 3 2 0.090000 17.507999 21.256001 176.940994 # H PRO
42 3 1 -0.180000 16.336000 21.313999 178.725998 # C PRO
43 3 2 0.090000 16.025000 22.113001 179.427994 # H PRO
44 3 2 0.090000 17.171000 20.749001 179.199997 # H PRO
45 3 1 0.510000 15.705000 21.424999 175.201004 # C PRO
46 3 5 -0.510000 15.716000 20.208000 175.016006 # O PRO
47 4 4 -0.470000 15.890000 22.316999 174.235001 # N SER
48 4 2 0.310000 15.760000 23.302000 174.350998 # H SER
49 4 1 0.070000 16.306000 21.926001 172.901001 # C SER
50 4 2 0.090000 15.924000 20.927999 172.727005 # H SER
51 4 1 0.050000 15.786000 22.924000 171.865997 # C SER
52 4 2 0.090000 15.867000 22.452999 170.860001 # H SER
53 4 2 0.090000 14.707000 23.138000 172.041000 # H SER
54 4 5 -0.660000 16.549999 24.108999 171.876999 # O SER
55 4 2 0.430000 16.327999 24.597000 171.074005 # H SER
56 4 1 0.510000 17.827999 21.841000 172.869995 # C SER
57 4 5 -0.510000 18.497000 22.302999 173.800003 # O SER
58 5 4 -0.470000 18.367001 21.243999 171.807007 # N THR
59 5 2 0.310000 17.832001 20.830000 171.070999 # H THR
60 5 1 0.070000 19.819000 21.143000 171.626007 # C THR
61 5 2 0.090000 20.247000 21.339001 172.600006 # H THR
62 5 1 0.140000 20.214001 19.750999 171.087997 # C THR
63 5 2 0.090000 21.297001 19.818001 170.820007 # H THR
64 5 5 -0.660000 19.476000 19.466999 169.886002 # O THR
65 5 2 0.430000 19.759001 18.587999 169.613007 # H THR
66 5 1 -0.270000 19.785000 18.646999 172.057999 # C THR
67 5 2 0.090000 20.169001 17.659000 171.727005 # H THR
68 5 2 0.090000 20.187000 18.846001 173.074005 # H THR
69 5 2 0.090000 18.677999 18.584000 172.128006 # H THR
70 5 1 0.510000 20.354000 22.219999 170.692993 # C THR
71 5 5 -0.510000 21.545000 22.233000 170.375000 # O THR
72 6 4 -0.470000 19.473000 23.120001 170.261002 # N MET
73 6 2 0.310000 18.517000 23.122000 170.546005 # H MET
74 6 1 0.070000 19.827999 24.188999 169.328003 # C MET
75 6 2 0.090000 20.329000 23.719999 168.490005 # H MET
76 6 1 -0.180000 18.573000 24.931000 168.837006 # C MET
77 6 2 0.090000 18.139000 25.454000 169.720993 # H MET
78 6 2 0.090000 18.872000 25.726999 168.119003 # H MET
79 6 1 -0.140000 17.500999 24.028999 168.223999 # C MET
80 6 2 0.090000 17.384001 23.104000 168.826996 # H MET
81 6 2 0.090000 16.523001 24.556999 168.225998 # H MET
82 6 7 -0.090000 17.857000 23.514999 166.522995 # S MET
83 6 1 -0.220000 18.482000 21.849001 166.772995 # C MET
84 6 2 0.090000 18.764000 21.382000 165.804993 # H MET
85 6 2 0.090000 19.382000 21.854000 167.425003 # H MET
86 6 2 0.090000 17.716000 21.202999 167.253006 # H MET
87 6 1 0.510000 20.802999 25.181999 169.949997 # C MET
88 6 5 -0.510000 20.718000 25.490999 171.141998 # O MET
89 7 4 -0.470000 21.726999 25.672001 169.126999 # N MET
90 7 2 0.310000 21.826000 25.367001 168.182007 # H MET
91 7 1 0.070000 22.677999 26.698000 169.529999 # C MET
92 7 2 0.090000 23.195000 26.329000 170.406998 # H MET
93 7 1 -0.180000 23.634001 27.017000 168.380005 # C MET
94 7 2 0.090000 23.021000 27.052000 167.449005 # H MET
95 7 2 0.090000 24.049000 28.040001 168.518005 # H MET
96 7 1 -0.140000 24.747999 26.018000 168.186005 # C MET
97 7 2 0.090000 25.372999 25.954000 169.102005 # H MET
98 7 2 0.090000 24.318001 25.010000 168.001007 # H MET
99 7 7 -0.090000 25.778999 26.514999 166.798004 # S MET
100 7 1 -0.220000 26.721001 25.041000 166.544998 # C MET
101 7 2 0.090000 27.441000 25.169001 165.707993 # H MET
102 7 2 0.090000 27.299999 24.777000 167.455994 # H MET
103 7 2 0.090000 26.061001 24.181999 166.298004 # H MET
104 7 1 0.510000 21.959999 27.979000 169.925003 # C MET
105 7 5 -0.510000 20.979000 28.374001 169.285004 # O MET
106 8 4 -0.470000 22.464001 28.620001 170.975006 # N ASP
107 8 2 0.310000 23.201000 28.275000 171.550995 # H ASP
108 8 1 0.070000 21.975000 29.926001 171.399002 # C ASP
109 8 2 0.090000 20.937000 30.007000 171.098007 # H ASP
110 8 1 -0.280000 22.124001 30.100000 172.916000 # C ASP
111 8 2 0.090000 23.152000 29.815001 173.216995 # H ASP
112 8 2 0.090000 21.955999 31.156000 173.205994 # H ASP
113 8 1 0.620000 21.162001 29.226000 173.701004 # C ASP
114 8 5 -0.760000 19.938000 29.312000 173.468994 # O ASP
115 8 5 -0.760000 21.538000 28.413000 174.565994 # O ASP
116 8 1 0.510000 22.735001 31.010000 170.649994 # C ASP
117 8 5 -0.510000 23.584999 31.698000 171.214996 # O ASP
118 9 4 -0.470000 22.423000 31.136999 169.365997 # N GLU
119 9 2 0.310000 21.746000 30.559000 168.917999 # H GLU
120 9 1 0.070000 23.034000 32.126999 168.485001 # C GLU
121 9 2 0.090000 23.966000 32.472000 168.914993 # H GLU
122 9 1 -0.180000 23.237000 31.500999 167.100006 # C GLU
123 9 2 0.090000 23.048000 30.406000 167.182999 # H GLU
124 9 2 0.090000 22.469999 31.891001 166.393997 # H GLU
125 9 1 -0.280000 24.599001 31.655001 166.417999 # C GLU
126 9 2 0.090000 24.865999 30.709999 165.910004 # H GLU
127 9 2 0.090000 24.580000 32.476002 165.673996 # H GLU
128 9 1 0.620000 25.768000 31.926001 167.350006 # C GLU
129 9 5 -0.760000 26.245001 30.981001 168.014008 # O GLU
130 9 5 -0.760000 26.225000 33.087002 167.401001 # O GLU
131 9 1 0.510000 22.090000 33.337002 168.410004 # C GLU
132 9 5 -0.510000 20.905001 33.192001 168.095001 # O GLU
133 10 4 -0.470000 22.615000 34.521000 168.720993 # N GLU
134 10 2 0.310000 23.566999 34.645000 168.987000 # H GLU
135 10 1 0.070000 21.837999 35.757999 168.701004 # C GLU
136 10 2 0.090000 20.853001 35.535000 169.091003 # H GLU
137 10 1 -0.180000 22.513000 36.845001 169.557999 # C GLU
138 10 2 0.090000 23.464001 37.139999 169.057999 # H GLU
139 10 2 0.090000 21.879999 37.759998 169.574005 # H GLU
140 10 1 -0.280000 22.841000 36.446999 170.998993 # C GLU
141 10 2 0.090000 23.421000 35.506001 170.998993 # H GLU
142 10 2 0.090000 23.429001 37.237999 171.505005 # H GLU
143 10 1 0.620000 21.606001 36.160999 171.841003 # C GLU
144 10 5 -0.760000 20.707001 37.027000 171.916000 # O GLU
145 10 5 -0.760000 21.532000 35.062000 172.429001 # O GLU
146 10 1 0.510000 21.653000 36.296001 167.289993 # C GLU
147 10 5 -0.510000 22.549000 36.181000 166.455994 # O GLU
148 11 4 -0.470000 20.490999 36.893002 167.031998 # N LEU
149 11 2 0.310000 19.711000 36.888000 167.654007 # H LEU
150 11 1 0.070000 20.261999 37.618999 165.789993 # C LEU
151 11 2 0.090000 20.731001 37.061001 164.990005 # H LEU
152 11 1 -0.180000 18.759001 37.799999 165.533997 # C LEU
153 11 2 0.090000 18.341999 38.359001 166.403000 # H LEU
154 11 2 0.090000 18.620001 38.459000 164.649002 # H LEU
155 11 1 -0.090000 17.885000 36.549000 165.348999 # C LEU
156 11 2 0.090000 18.031000 35.944000 166.276001 # H LEU
157 11 1 -0.270000 16.410000 36.924999 165.207001 # C LEU
158 11 2 0.090000 15.792000 36.019001 165.026001 # H LEU
159 11 2 0.090000 16.042000 37.419998 166.130997 # H LEU
160 11 2 0.090000 16.263000 37.620998 164.354004 # H LEU
161 11 1 -0.270000 18.341000 35.705002 164.154999 # C LEU
162 11 2 0.090000 17.704000 34.799000 164.057007 # H LEU
163 11 2 0.090000 18.271999 36.270000 163.203995 # H LEU
164 11 2 0.090000 19.393999 35.375999 164.291000 # H LEU
165 11 1 0.510000 20.961000 38.979000 165.876007 # C LEU
166 11 5 -0.510000 20.900000 39.646999 166.903000 # O LEU
167 12 4 -0.470000 21.636000 39.372002 164.798004 # N ASN
168 12 2 0.310000 21.690001 38.835999 163.955994 # H ASN
169 12 1 0.070000 22.364000 40.639000 164.757996 # C ASN
170 12 2 0.090000 21.805000 41.314999 165.395996 # H ASN
171 12 1 -0.180000 23.795000 40.445999 165.274994 # C ASN
172 12 2 0.090000 23.757000 39.726002 166.121002 # H ASN
173 12 2 0.090000 24.433001 39.999001 164.485992 # H ASN
174 12 1 0.550000 24.408001 41.730000 165.779007 # C ASN
175 12 5 -0.550000 24.354000 42.033001 166.973007 # O ASN
176 12 4 -0.620000 24.990999 42.502998 164.871994 # N ASN
177 12 2 0.320000 25.410000 43.348000 165.192001 # H ASN
178 12 2 0.300000 25.024000 42.216000 163.919998 # H ASN
179 12 1 0.510000 22.386000 41.240002 163.352997 # C ASN
180 12 5 -0.510000 22.580000 40.520000 162.371994 # O ASN
181 13 4 -0.470000 22.198000 42.558998 163.270004 # N LEU
182 13 2 0.310000 22.075001 43.146000 164.067993 # H LEU
183 13 1 0.070000 22.155001 43.268002 161.988007 # C LEU
184 13 2 0.090000 21.410000 42.756001 161.391998 # H LEU
185 13 1 -0.180000 21.732000 44.734001 162.175995 # C LEU
186 13 2 0.090000 22.299999 45.131001 163.048996 # H LEU
187 13 2 0.090000 22.069000 45.324001 161.294998 # H LEU
188 13 1 -0.090000 20.240999 45.013000 162.429001 # C LEU
189 13 2 0.090000 19.951000 44.320999 163.255997 # H LEU
190 13 1 -0.270000 20.027000 46.464001 162.876007 # C LEU
191 13 2 0.090000 18.944000 46.674999 163.011002 # H LEU
192 13 2 0.090000 20.542999 46.655998 163.841003 # H LEU
193 13 2 0.090000 20.426001 47.171001 162.117996 # H LEU
194 13 1 -0.270000 19.375999 44.685001 161.212997 # C LEU
195 13 2 0.090000 18.305000 44.880001 161.436996 # H LEU
196 13 2 0.090000 19.653999 45.300999 160.334000 # H LEU
197 13 2 0.090000 19.483000 43.613998 160.936996 # H LEU
198 13 1 0.510000 23.479000 43.207001 161.223999 # C LEU
199 13 5 -0.510000 23.479000 43.206001 159.996994 # O LEU
200 14 4 -0.470000 24.594000 43.166000 161.951004 # N TRP
201 14 2 0.310000 24.596001 43.179001 162.947998 # H TRP
202 14 1 0.070000 25.919001 43.098000 161.328995 # C TRP
203 14 2 0.090000 26.007000 43.960999 160.679001 # H TRP
204 14 1 -0.180000 27.034000 43.151001 162.380005 # C TRP
205 14 2 0.090000 26.875000 44.061001 163.000000 # H TRP
206 14 2 0.090000 26.951000 42.278000 163.063004 # H TRP
207 14 1 -0.030000 28.392000 43.237000 161.759003 # C TRP
208 14 1 -0.150000 29.289000 42.213001 161.591995 # C TRP
209 14 2 0.220000 29.108999 41.188000 161.888000 # H TRP
210 14 4 -0.510000 30.420000 42.674000 160.960999 # N TRP
211 14 2 0.370000 31.195000 42.139000 160.703003 # H TRP
212 14 1 0.240000 30.273001 44.012001 160.699005 # C TRP
213 14 1 0.110000 29.002001 44.400002 161.182999 # C TRP
214 14 1 -0.250000 28.607000 45.737999 161.031006 # C TRP
215 14 2 0.170000 27.650000 46.094002 161.386993 # H TRP
216 14 1 -0.200000 29.473000 46.627998 160.414001 # C TRP
217 14 2 0.140000 29.177999 47.661999 160.296997 # H TRP
218 14 1 -0.270000 31.146000 44.910000 160.076996 # C TRP
219 14 2 0.160000 32.115002 44.613998 159.707001 # H TRP
220 14 1 -0.140000 30.726999 46.208000 159.942993 # C TRP
221 14 2 0.140000 31.382999 46.921001 159.462997 # H TRP
222 14 1 0.510000 26.086000 41.858002 160.447998 # C TRP
223 14 5 -0.510000 26.823999 41.894001 159.460007 # O TRP
224 15 4 -0.470000 25.392000 40.773998 160.802994 # N ASP
225 15 2 0.310000 24.787001 40.720001 161.593002 # H ASP
226 15 1 0.070000 25.452999 39.527000 160.046997 # C ASP
227 15 2 0.090000 26.502001 39.258999 159.990005 # H ASP
228 15 1 -0.280000 24.677000 38.403000 160.755997 # C ASP
229 15 2 0.090000 23.612000 38.696999 160.850006 # H ASP
230 15 2 0.090000 24.729000 37.464001 160.171005 # H ASP
231 15 1 0.620000 25.191000 38.118999 162.162003 # C ASP
232 15 5 -0.760000 26.291000 38.591999 162.526001 # O ASP
233 15 5 -0.760000 24.551001 37.428001 162.981995 # O ASP
234 15 1 0.510000 24.955000 39.674000 158.606003 # C ASP
235 15 5 -0.510000 25.327000 38.876999 157.748993 # O ASP
236 16 4 -0.470000 24.115000 40.674999 158.343994 # N PHE
237 16 2 0.310000 23.763000 41.306999 159.033005 # H PHE
238 16 1 0.070000 23.632000 40.929001 156.983994 # C PHE
239 16 2 0.090000 23.309000 39.974998 156.585999 # H PHE
240 16 1 -0.180000 22.490000 41.959999 156.968994 # C PHE
241 16 2 0.090000 22.759001 42.811001 157.632996 # H PHE
242 16 2 0.090000 22.339001 42.375000 155.949005 # H PHE
243 16 1 0.000000 21.160000 41.443001 157.485992 # C PHE
244 16 1 -0.115000 20.999001 40.124001 157.914001 # C PHE
245 16 2 0.115000 21.837999 39.443001 157.876007 # H PHE
246 16 1 -0.115000 19.764000 39.667999 158.386002 # C PHE
247 16 2 0.115000 19.657000 38.646000 158.720001 # H PHE
248 16 1 -0.115000 18.674000 40.536999 158.429993 # C PHE
249 16 2 0.115000 17.719000 40.193001 158.800995 # H PHE
250 16 1 -0.115000 20.058001 42.298000 157.535995 # C PHE
251 16 2 0.115000 20.149000 43.318001 157.188995 # H PHE
252 16 1 -0.115000 18.822001 41.856998 158.003006 # C PHE
253 16 2 0.115000 17.983000 42.537998 158.031998 # H PHE
254 16 1 0.510000 24.778999 41.419998 156.098007 # C PHE
255 16 5 -0.510000 24.995001 40.903000 155.003006 # O PHE
256 17 4 -0.470000 25.520000 42.409000 156.585999 # N LEU
257 17 2 0.310000 25.392000 42.813999 157.488998 # H LEU
258 17 1 0.070000 26.614000 42.998001 155.811996 # C LEU
259 17 2 0.090000 26.232000 43.147999 154.809998 # H LEU
260 17 1 -0.180000 27.023001 44.362000 156.384995 # C LEU
261 17 2 0.090000 26.091999 44.964001 156.498001 # H LEU
262 17 2 0.090000 27.423000 44.216999 157.412994 # H LEU
263 17 1 -0.090000 28.017000 45.220001 155.591003 # C LEU
264 17 2 0.090000 28.924000 44.583000 155.451996 # H LEU
265 17 1 -0.270000 27.462999 45.632000 154.231995 # C LEU
266 17 2 0.090000 28.183001 46.291000 153.701004 # H LEU
267 17 2 0.090000 27.275000 44.737999 153.598999 # H LEU
268 17 2 0.090000 26.507999 46.187000 154.348999 # H LEU
269 17 1 -0.270000 28.423000 46.449001 156.393005 # C LEU
270 17 2 0.090000 29.157000 47.057999 155.822006 # H LEU
271 17 2 0.090000 27.552000 47.097000 156.619003 # H LEU
272 17 2 0.090000 28.893999 46.147999 157.354004 # H LEU
273 17 1 0.510000 27.813000 42.057999 155.712006 # C LEU
274 17 5 -0.510000 28.500000 42.021999 154.686996 # O LEU
275 18 4 -0.470000 28.051001 41.294998 156.774994 # N GLU
276 18 2 0.310000 27.533001 41.347000 157.623993 # H GLU
277 18 1 0.070000 29.115999 40.292999 156.789001 # C GLU
278 18 2 0.090000 30.049999 40.787998 156.556000 # H GLU
279 18 1 -0.180000 29.222000 39.646000 158.171997 # C GLU
280 18 2 0.090000 29.083000 40.442001 158.938995 # H GLU
281 18 2 0.090000 28.382000 38.930000 158.319000 # H GLU
282 18 1 -0.280000 30.548000 38.943001 158.429001 # C GLU
283 18 2 0.090000 30.782000 38.275002 157.580002 # H GLU
284 18 2 0.090000 31.368999 39.676998 158.552994 # H GLU
285 18 1 0.620000 30.511000 38.050999 159.656006 # C GLU
286 18 5 -0.760000 29.407000 37.653000 160.087997 # O GLU
287 18 5 -0.760000 31.590000 37.742001 160.190002 # O GLU
288 18 1 0.510000 28.884001 39.233002 155.712997 # C GLU
289 18 5 -0.510000 29.809000 38.854000 154.990005 # O GLU
290 19 4 -0.470000 27.641001 38.773998 155.602997 # N ARG
291 19 2 0.310000 26.923000 39.073002 156.227005 # H ARG
292 19 1 0.070000 27.254999 37.813999 154.572006 # C ARG
293 19 2 0.090000 27.982000 37.009998 154.569000 # H ARG
294 19 1 -0.180000 25.865000 37.250000 154.880997 # C ARG
295 19 2 0.090000 25.922001 36.818001 155.908997 # H ARG
296 19 2 0.090000 25.129999 38.083000 154.938995 # H ARG
297 19 1 -0.180000 25.391001 36.165001 153.925003 # C ARG
298 19 2 0.090000 25.344000 36.592999 152.899994 # H ARG
299 19 2 0.090000 26.162001 35.362000 153.878006 # H ARG
300 19 1 0.200000 24.076000 35.528000 154.335999 # C ARG
301 19 2 0.090000 24.181999 35.081001 155.350998 # H ARG
302 19 2 0.090000 23.249001 36.276001 154.360001 # H ARG
303 19 4 -0.700000 23.643000 34.478001 153.412003 # N ARG
304 19 2 0.440000 23.962999 33.561001 153.677002 # H ARG
305 19 1 0.640000 22.903000 34.683998 152.326996 # C ARG
306 19 4 -0.800000 22.507000 35.909000 152.003006 # N ARG
307 19 2 0.460000 21.934999 36.061001 151.209000 # H ARG
308 19 2 0.460000 22.702000 36.630001 152.671997 # H ARG
309 19 4 -0.800000 22.559999 33.660000 151.561996 # N ARG
310 19 2 0.460000 22.084000 33.819000 150.709000 # H ARG
311 19 2 0.460000 22.978001 32.785000 151.770004 # H ARG
312 19 1 0.510000 27.291000 38.443001 153.175003 # C ARG
313 19 5 -0.510000 27.679001 37.790001 152.201004 # O ARG
314 20 4 -0.470000 26.886999 39.709000 153.085999 # N ALA
315 20 2 0.310000 26.535000 40.215000 153.873001 # H ALA
316 20 1 0.070000 26.929001 40.457001 151.824005 # C ALA
317 20 2 0.090000 26.356001 39.945000 151.059006 # H ALA
318 20 1 -0.270000 26.316999 41.848999 152.001999 # C ALA
319 20 2 0.090000 25.264000 41.751999 152.341003 # H ALA
320 20 2 0.090000 26.871000 42.433998 152.768997 # H ALA
321 20 2 0.090000 26.320000 42.422001 151.050003 # H ALA
322 20 1 0.510000 28.358000 40.567001 151.292007 # C ALA
323 20 5 -0.510000 28.598000 40.340000 150.108994 # O ALA
324 21 4 -0.470000 29.294001 40.894001 152.181000 # N ALA
325 21 2 0.310000 29.070000 41.066002 153.139999 # H ALA
326 21 1 0.070000 30.712999 41.027000 151.832001 # C ALA
327 21 2 0.090000 30.822001 41.706001 150.994003 # H ALA
328 21 1 -0.270000 31.490000 41.625000 152.994995 # C ALA
329 21 2 0.090000 31.052999 42.609001 153.268997 # H ALA
330 21 2 0.090000 31.438999 40.966999 153.889999 # H ALA
331 21 2 0.090000 32.557999 41.785000 152.733994 # H ALA
332 21 1 0.510000 31.347000 39.703999 151.401001 # C ALA
333 21 5 -0.510000 32.201000 39.681000 150.511002 # O ALA
334 22 4 -0.470000 30.921000 38.609001 152.028000 # N ALA
335 22 2 0.310000 30.202000 38.626999 152.722000 # H ALA
336 22 1 0.070000 31.482000 37.291000 151.740997 # C ALA
337 22 2 0.090000 32.551998 37.381001 151.589996 # H ALA
338 22 1 -0.270000 31.302999 36.355999 152.938004 # C ALA
339 22 2 0.090000 31.759001 36.814999 153.841003 # H ALA
340 22 2 0.090000 30.226000 36.181000 153.149994 # H ALA
341 22 2 0.090000 31.794001 35.374001 152.766998 # H ALA
342 22 1 0.510000 30.920000 36.644001 150.472000 # C ALA
343 22 5 -0.510000 31.662001 36.001999 149.723999 # O ALA
344 23 4 -0.470000 29.621000 36.810001 150.227997 # N LEU
345 23 2 0.310000 29.017000 37.396000 150.764008 # H LEU
346 23 1 0.070000 28.961000 36.122002 149.117004 # C LEU
347 23 2 0.090000 29.670000 35.377998 148.776001 # H LEU
348 23 1 -0.180000 27.677999 35.423000 149.591995 # C LEU
349 23 2 0.090000 27.013000 36.209999 150.018005 # H LEU
350 23 2 0.090000 27.141001 35.012001 148.707993 # H LEU
351 23 1 -0.090000 27.771000 34.313999 150.647995 # C LEU
352 23 2 0.090000 28.231001 34.777000 151.554993 # H LEU
353 23 1 -0.270000 26.379000 33.806999 150.988007 # C LEU
354 23 2 0.090000 26.436001 32.970001 151.716995 # H LEU
355 23 2 0.090000 25.766001 34.618000 151.434998 # H LEU
356 23 2 0.090000 25.862000 33.438000 150.076996 # H LEU
357 23 1 -0.270000 28.676001 33.165001 150.192001 # C LEU
358 23 2 0.090000 28.739000 32.386002 150.983002 # H LEU
359 23 2 0.090000 28.291000 32.680000 149.272995 # H LEU
360 23 2 0.090000 29.702999 33.536999 149.987000 # H LEU
361 23 1 0.510000 28.639000 37.028999 147.932007 # C LEU
362 23 5 -0.510000 28.563000 36.562000 146.792999 # O LEU
363 24 4 -0.470000 28.434000 38.313999 148.205994 # N PHE
364 24 2 0.310000 28.552000 38.712002 149.115005 # H PHE
365 24 1 0.070000 28.011999 39.264000 147.179993 # C PHE
366 24 2 0.090000 28.214001 38.789001 146.227997 # H PHE
367 24 1 -0.180000 26.521000 39.590000 147.350998 # C PHE
368 24 2 0.090000 26.396000 40.279999 148.214005 # H PHE
369 24 2 0.090000 26.120001 40.110001 146.455002 # H PHE
370 24 1 0.000000 25.659000 38.388000 147.651993 # C PHE
371 24 1 -0.115000 25.378000 37.448002 146.664001 # C PHE
372 24 2 0.115000 25.780001 37.581001 145.669006 # H PHE
373 24 1 -0.115000 24.580000 36.338001 146.936005 # C PHE
374 24 2 0.115000 24.382000 35.611000 146.160995 # H PHE
375 24 1 -0.115000 24.042999 36.162998 148.210999 # C PHE
376 24 2 0.115000 23.429001 35.301998 148.432999 # H PHE
377 24 1 -0.115000 25.117001 38.205002 148.923996 # C PHE
378 24 2 0.115000 25.302999 38.933998 149.701004 # H PHE
379 24 1 -0.115000 24.311001 37.104000 149.207001 # C PHE
380 24 2 0.115000 23.893999 36.981998 150.197006 # H PHE
381 24 1 0.510000 28.848000 40.546001 147.229004 # C PHE
382 24 5 -0.510000 28.327999 41.646000 147.024994 # O PHE
383 25 4 -0.470000 30.145000 40.390999 147.494995 # N GLY
384 25 2 0.310000 30.566000 39.486000 147.548004 # H GLY
385 25 1 -0.020000 31.040001 41.515999 147.725998 # C GLY
386 25 2 0.090000 32.006001 41.073002 147.923996 # H GLY
387 25 2 0.090000 30.617001 42.051998 148.565002 # H GLY
388 25 1 0.510000 31.198999 42.497002 146.574005 # C GLY
389 25 5 -0.510000 31.476000 43.676998 146.809998 # O GLY
390 26 4 -0.470000 31.023001 42.014999 145.341003 # N ARG
391 26 2 0.310000 30.792999 41.055000 145.197006 # H ARG
392 26 1 0.070000 31.153000 42.846001 144.143005 # C ARG
393 26 2 0.090000 31.878000 43.619999 144.365005 # H ARG
394 26 1 -0.180000 31.684999 42.021999 142.960007 # C ARG
395 26 2 0.090000 31.108000 41.066002 142.957001 # H ARG
396 26 2 0.090000 31.433001 42.535000 142.005997 # H ARG
397 26 1 -0.180000 33.180000 41.683998 143.022003 # C ARG
398 26 2 0.090000 33.750999 42.627998 143.162994 # H ARG
399 26 2 0.090000 33.375999 41.076000 143.934998 # H ARG
400 26 1 0.200000 33.668999 40.890999 141.809998 # C ARG
401 26 2 0.090000 33.007999 40.007000 141.654999 # H ARG
402 26 2 0.090000 33.659000 41.512001 140.884003 # H ARG
403 26 4 -0.700000 35.047001 40.410000 141.947006 # N ARG
404 26 2 0.440000 35.278000 40.134998 142.886993 # H ARG
405 26 1 0.640000 35.924000 40.334999 140.944000 # C ARG
406 26 4 -0.800000 35.581001 40.712002 139.716995 # N ARG
407 26 2 0.460000 36.223000 40.632999 138.966995 # H ARG
408 26 2 0.460000 34.616001 40.942001 139.576996 # H ARG
409 26 4 -0.800000 37.153999 39.881001 141.162994 # N ARG
410 26 2 0.460000 37.827000 39.908001 140.436996 # H ARG
411 26 2 0.460000 37.412998 39.724998 142.106995 # H ARG
412 26 1 0.510000 29.853001 43.562000 143.750000 # C ARG
413 26 5 -0.510000 29.863001 44.435001 142.878006 # O ARG
414 27 4 -0.470000 28.743999 43.195999 144.389999 # N LYS
415 27 2 0.310000 28.725000 42.462002 145.067001 # H LYS
416 27 1 0.070000 27.455999 43.849998 144.145996 # C LYS
417 27 2 0.090000 27.268999 43.812000 143.080002 # H LYS
418 27 1 -0.180000 26.319000 43.139000 144.888000 # C LYS
419 27 2 0.090000 26.622999 43.062000 145.957001 # H LYS
420 27 2 0.090000 25.413000 43.785000 144.867004 # H LYS
421 27 1 -0.180000 25.985001 41.731998 144.367004 # C LYS
422 27 2 0.090000 26.820000 41.041000 144.623993 # H LYS
423 27 2 0.090000 25.073000 41.359001 144.888000 # H LYS
424 27 1 -0.180000 25.768999 41.691002 142.847000 # C LYS
425 27 2 0.090000 26.613001 42.229000 142.356995 # H LYS
426 27 2 0.090000 25.816000 40.626999 142.518997 # H LYS
427 27 1 0.210000 24.438999 42.306000 142.451004 # C LYS
428 27 2 0.050000 24.365999 43.352001 142.824005 # H LYS
429 27 2 0.050000 24.329000 42.319000 141.343994 # H LYS
430 27 4 -0.300000 23.289000 41.544998 143.011993 # N LYS
431 27 2 0.330000 22.393000 41.990002 142.725006 # H LYS
432 27 2 0.330000 23.316000 40.566002 142.660995 # H LYS
433 27 2 0.330000 23.353001 41.537998 144.050003 # H LYS
434 27 1 0.510000 27.521999 45.321999 144.544998 # C LYS
435 27 5 -0.510000 28.056000 45.662998 145.602997 # O LYS
436 28 4 -0.470000 26.971001 46.181999 143.692001 # N GLU
437 28 2 0.310000 26.388000 45.910000 142.932007 # H GLU
438 28 1 0.070000 27.176001 47.620998 143.796997 # C GLU
439 28 2 0.090000 28.170000 47.757999 144.203995 # H GLU
440 28 1 -0.180000 27.115999 48.263000 142.406998 # C GLU
441 28 2 0.090000 26.174000 47.931999 141.912003 # H GLU
442 28 2 0.090000 27.037001 49.368999 142.505005 # H GLU
443 28 1 -0.280000 28.282000 47.921001 141.498993 # C GLU
444 28 2 0.090000 29.225000 47.972000 142.074005 # H GLU
445 28 2 0.090000 28.169001 46.903999 141.074005 # H GLU
446 28 1 0.620000 28.431000 48.911999 140.363007 # C GLU
447 28 5 -0.760000 27.587000 48.893002 139.442001 # O GLU
448 28 5 -0.760000 29.382000 49.723999 140.399994 # O GLU
449 28 1 0.510000 26.205999 48.346001 144.720993 # C GLU
450 28 5 -0.510000 25.039000 47.971001 144.847000 # O GLU
451 29 4 -0.470000 26.716000 49.395000 145.362000 # N VAL
452 29 2 0.310000 27.695000 49.571999 145.412003 # H VAL
453 29 1 0.070000 25.892000 50.377998 146.046997 # C VAL
454 29 2 0.090000 24.847000 50.120998 145.923996 # H VAL
455 29 1 -0.090000 26.231001 50.479000 147.554993 # C VAL
456 29 2 0.090000 27.334999 50.632999 147.643005 # H VAL
457 29 1 -0.270000 25.511000 51.655998 148.188004 # C VAL
458 29 2 0.090000 25.726999 51.700001 149.276993 # H VAL
459 29 2 0.090000 25.837000 52.620998 147.746994 # H VAL
460 29 2 0.090000 24.412001 51.558998 148.059998 # H VAL
461 29 1 -0.270000 25.877001 49.171001 148.292007 # C VAL
462 29 2 0.090000 26.084999 49.264000 149.378998 # H VAL
463 29 2 0.090000 24.799999 48.929001 148.162003 # H VAL
464 29 2 0.090000 26.475000 48.319000 147.908005 # H VAL
465 29 1 0.510000 26.122000 51.712002 145.337997 # C VAL
466 29 5 -0.510000 27.235001 52.238998 145.330994 # O VAL
467 30 4 -0.470000 25.070000 52.245998 144.725998 # N VAL
468 30 2 0.310000 24.149000 51.868000 144.776993 # H VAL
469 30 1 0.070000 25.183001 53.456001 143.912003 # C VAL
470 30 2 0.090000 26.232000 53.720001 143.856995 # H VAL
471 30 1 -0.090000 24.636999 53.221001 142.479004 # C VAL
472 30 2 0.090000 23.569000 52.905998 142.572006 # H VAL
473 30 1 -0.270000 24.702000 54.501999 141.634995 # C VAL
474 30 2 0.090000 24.343000 54.301998 140.602005 # H VAL
475 30 2 0.090000 24.062000 55.304001 142.057999 # H VAL
476 30 2 0.090000 25.746000 54.876999 141.569000 # H VAL
477 30 1 -0.270000 25.403999 52.084999 141.789001 # C VAL
478 30 2 0.090000 25.042000 51.941002 140.748993 # H VAL
479 30 2 0.090000 26.490999 52.313999 141.751999 # H VAL
480 30 2 0.090000 25.268000 51.124001 142.326996 # H VAL
481 30 1 0.510000 24.455000 54.615002 144.578995 # C VAL
482 30 5 -0.510000 23.309000 54.467999 145.011002 # O VAL
483 31 4 -0.470000 25.125999 55.759998 144.664993 # N SER
484 31 2 0.310000 26.042000 55.897999 144.287994 # H SER
485 31 1 0.070000 24.569000 56.936001 145.332001 # C SER
486 31 2 0.090000 23.525999 56.701000 145.501007 # H SER
487 31 1 0.050000 25.316999 57.216000 146.639008 # C SER
488 31 2 0.090000 26.379999 57.438000 146.389008 # H SER
489 31 2 0.090000 24.902000 58.122002 147.136993 # H SER
490 31 5 -0.660000 25.289000 56.108002 147.516006 # O SER
491 31 2 0.430000 25.952000 56.270000 148.199005 # H SER
492 31 1 0.510000 24.617001 58.187000 144.464996 # C SER
493 31 5 -0.510000 25.638000 58.486000 143.843994 # O SER
494 32 4 -0.470000 23.509001 58.917000 144.429993 # N ARG
495 32 2 0.310000 22.638000 58.580002 144.779999 # H ARG
496 32 1 0.070000 23.511999 60.261002 143.871994 # C ARG
497 32 2 0.090000 24.409000 60.407001 143.281998 # H ARG
498 32 1 -0.180000 22.282000 60.515999 142.996002 # C ARG
499 32 2 0.090000 22.115999 59.583000 142.406006 # H ARG
500 32 2 0.090000 21.382999 60.633999 143.641006 # H ARG
501 32 1 -0.180000 22.469999 61.696999 142.042007 # C ARG
502 32 2 0.090000 23.231001 62.382999 142.473999 # H ARG
503 32 2 0.090000 22.909000 61.325001 141.087997 # H ARG
504 32 1 0.200000 21.195999 62.445999 141.686996 # C ARG
505 32 2 0.090000 20.576000 62.577999 142.604004 # H ARG
506 32 2 0.090000 21.417999 63.451000 141.257996 # H ARG
507 32 4 -0.700000 20.400999 61.743000 140.684006 # N ARG
508 32 2 0.440000 19.565001 61.328999 141.061005 # H ARG
509 32 1 0.640000 20.718000 61.639999 139.395004 # C ARG
510 32 4 -0.800000 21.830000 62.195000 138.925995 # N ARG
511 32 2 0.460000 22.052999 62.139999 137.962997 # H ARG
512 32 2 0.460000 22.341000 62.773998 139.565002 # H ARG
513 32 4 -0.800000 19.920000 60.977001 138.565002 # N ARG
514 32 2 0.460000 20.198999 60.827000 137.626999 # H ARG
515 32 2 0.460000 19.167999 60.474998 138.970993 # H ARG
516 32 1 0.510000 23.577999 61.259998 145.018005 # C ARG
517 32 5 -0.510000 22.665001 61.334000 145.839005 # O ARG