LAMMPS data file. CGCMM style. atom_style charge generated by VMD/TopoTools v1.7 on Sun Sep 26 16:00:54 EDT 2021
 16990 atoms
 0 bonds
 0 angles
 0 dihedrals
 0 impropers
 7 atom types
 0 bond types
 0 angle types
 0 dihedral types
 0 improper types
 -0.500000 0.500000  xlo xhi
 -0.500000 0.500000  ylo yhi
 -0.500000 0.500000  zlo zhi

# Pair Coeffs
#
# 1  C
# 2  H
# 3  Mg
# 4  N
# 5  O
# 6  P
# 7  S

 Atoms # charge

1 4 -0.300000 10.976000 22.778999 180.690002 # N
2 2 0.330000 10.450000 23.360001 181.311005 # H
3 2 0.330000 10.687000 22.940001 179.746002 # H
4 2 0.330000 11.952000 22.973000 180.785995 # H
5 1 0.210000 10.728000 21.344999 181.037994 # C
6 2 0.100000 11.067000 21.128000 182.044006 # H
7 1 -0.270000 9.235000 21.028999 180.977997 # C
8 2 0.090000 8.688000 21.677000 181.695999 # H
9 2 0.090000 8.826000 21.223000 179.962006 # H
10 2 0.090000 9.030000 19.969999 181.246002 # H
11 1 0.510000 11.514000 20.423000 180.110992 # C
12 5 -0.510000 12.065000 19.402000 180.542007 # O
13 4 -0.470000 11.558000 20.788000 178.830994 # N
14 2 0.310000 11.034000 21.547001 178.447998 # H
15 1 0.070000 12.399000 20.087000 177.867004 # C
16 2 0.090000 13.094000 19.487000 178.442001 # H
17 1 -0.180000 11.568000 19.171000 176.960007 # C
18 2 0.090000 10.717000 18.756001 177.542999 # H
19 2 0.090000 11.135000 19.738001 176.108002 # H
20 1 0.000000 12.334000 17.986000 176.434006 # C
21 1 -0.115000 12.820000 17.006001 177.302994 # C
22 2 0.115000 12.644000 17.099001 178.365997 # H
23 1 -0.115000 13.533000 15.916000 176.813004 # C
24 2 0.115000 13.905000 15.163000 177.494003 # H
25 1 -0.115000 13.761000 15.794000 175.440994 # C
26 2 0.115000 14.302000 14.943000 175.054001 # H
27 1 -0.115000 12.578000 17.851000 175.069000 # C
28 2 0.115000 12.235000 18.611000 174.380997 # H
29 1 -0.115000 13.281000 16.766001 174.570999 # C
30 2 0.115000 13.455000 16.679001 173.507996 # H
31 1 0.510000 13.229000 21.082001 177.059006 # C
32 5 -0.510000 12.694000 21.825001 176.231003 # O
33 4 -0.290000 14.531000 21.122000 177.335007 # N
34 1 0.000000 15.227000 20.365999 178.393005 # C
35 2 0.090000 15.647000 19.396000 178.042007 # H
36 2 0.090000 14.598000 20.183001 179.294998 # H
37 1 0.020000 15.454000 21.980000 176.591003 # C
38 2 0.090000 15.062000 22.987000 176.505005 # H
39 1 -0.180000 16.745001 21.912001 177.417007 # C
40 2 0.090000 17.174999 22.923000 177.598007 # H
41 2 0.090000 17.507999 21.256001 176.940994 # H
42 1 -0.180000 16.336000 21.313999 178.725998 # C
43 2 0.090000 16.025000 22.113001 179.427994 # H
44 2 0.090000 17.171000 20.749001 179.199997 # H
45 1 0.510000 15.705000 21.424999 175.201004 # C
46 5 -0.510000 15.716000 20.208000 175.016006 # O
47 4 -0.470000 15.890000 22.316999 174.235001 # N
48 2 0.310000 15.760000 23.302000 174.350998 # H
49 1 0.070000 16.306000 21.926001 172.901001 # C
50 2 0.090000 15.924000 20.927999 172.727005 # H
51 1 0.050000 15.786000 22.924000 171.865997 # C
52 2 0.090000 15.867000 22.452999 170.860001 # H
53 2 0.090000 14.707000 23.138000 172.041000 # H
54 5 -0.660000 16.549999 24.108999 171.876999 # O
55 2 0.430000 16.327999 24.597000 171.074005 # H
56 1 0.510000 17.827999 21.841000 172.869995 # C
57 5 -0.510000 18.497000 22.302999 173.800003 # O
58 4 -0.470000 18.367001 21.243999 171.807007 # N
59 2 0.310000 17.832001 20.830000 171.070999 # H
60 1 0.070000 19.819000 21.143000 171.626007 # C
61 2 0.090000 20.247000 21.339001 172.600006 # H
62 1 0.140000 20.214001 19.750999 171.087997 # C
63 2 0.090000 21.297001 19.818001 170.820007 # H
64 5 -0.660000 19.476000 19.466999 169.886002 # O
65 2 0.430000 19.759001 18.587999 169.613007 # H
66 1 -0.270000 19.785000 18.646999 172.057999 # C
67 2 0.090000 20.169001 17.659000 171.727005 # H
68 2 0.090000 20.187000 18.846001 173.074005 # H
69 2 0.090000 18.677999 18.584000 172.128006 # H
70 1 0.510000 20.354000 22.219999 170.692993 # C
71 5 -0.510000 21.545000 22.233000 170.375000 # O
72 4 -0.470000 19.473000 23.120001 170.261002 # N
73 2 0.310000 18.517000 23.122000 170.546005 # H
74 1 0.070000 19.827999 24.188999 169.328003 # C
75 2 0.090000 20.329000 23.719999 168.490005 # H
76 1 -0.180000 18.573000 24.931000 168.837006 # C
77 2 0.090000 18.139000 25.454000 169.720993 # H
78 2 0.090000 18.872000 25.726999 168.119003 # H
79 1 -0.140000 17.500999 24.028999 168.223999 # C
80 2 0.090000 17.384001 23.104000 168.826996 # H
81 2 0.090000 16.523001 24.556999 168.225998 # H
82 7 -0.090000 17.857000 23.514999 166.522995 # S
83 1 -0.220000 18.482000 21.849001 166.772995 # C
84 2 0.090000 18.764000 21.382000 165.804993 # H
85 2 0.090000 19.382000 21.854000 167.425003 # H
86 2 0.090000 17.716000 21.202999 167.253006 # H
87 1 0.510000 20.802999 25.181999 169.949997 # C
88 5 -0.510000 20.718000 25.490999 171.141998 # O
89 4 -0.470000 21.726999 25.672001 169.126999 # N
90 2 0.310000 21.826000 25.367001 168.182007 # H
91 1 0.070000 22.677999 26.698000 169.529999 # C
92 2 0.090000 23.195000 26.329000 170.406998 # H
93 1 -0.180000 23.634001 27.017000 168.380005 # C
94 2 0.090000 23.021000 27.052000 167.449005 # H
95 2 0.090000 24.049000 28.040001 168.518005 # H
96 1 -0.140000 24.747999 26.018000 168.186005 # C
97 2 0.090000 25.372999 25.954000 169.102005 # H
98 2 0.090000 24.318001 25.010000 168.001007 # H
99 7 -0.090000 25.778999 26.514999 166.798004 # S
100 1 -0.220000 26.721001 25.041000 166.544998 # C
101 2 0.090000 27.441000 25.169001 165.707993 # H
102 2 0.090000 27.299999 24.777000 167.455994 # H
103 2 0.090000 26.061001 24.181999 166.298004 # H
104 1 0.510000 21.959999 27.979000 169.925003 # C
105 5 -0.510000 20.979000 28.374001 169.285004 # O
106 4 -0.470000 22.464001 28.620001 170.975006 # N
107 2 0.310000 23.201000 28.275000 171.550995 # H
108 1 0.070000 21.975000 29.926001 171.399002 # C
109 2 0.090000 20.937000 30.007000 171.098007 # H
110 1 -0.280000 22.124001 30.100000 172.916000 # C
111 2 0.090000 23.152000 29.815001 173.216995 # H
112 2 0.090000 21.955999 31.156000 173.205994 # H
113 1 0.620000 21.162001 29.226000 173.701004 # C
114 5 -0.760000 19.938000 29.312000 173.468994 # O
115 5 -0.760000 21.538000 28.413000 174.565994 # O
116 1 0.510000 22.735001 31.010000 170.649994 # C
117 5 -0.510000 23.584999 31.698000 171.214996 # O
118 4 -0.470000 22.423000 31.136999 169.365997 # N
119 2 0.310000 21.746000 30.559000 168.917999 # H
120 1 0.070000 23.034000 32.126999 168.485001 # C
121 2 0.090000 23.966000 32.472000 168.914993 # H
122 1 -0.180000 23.237000 31.500999 167.100006 # C
123 2 0.090000 23.048000 30.406000 167.182999 # H
124 2 0.090000 22.469999 31.891001 166.393997 # H
125 1 -0.280000 24.599001 31.655001 166.417999 # C
126 2 0.090000 24.865999 30.709999 165.910004 # H
127 2 0.090000 24.580000 32.476002 165.673996 # H
128 1 0.620000 25.768000 31.926001 167.350006 # C
129 5 -0.760000 26.245001 30.981001 168.014008 # O
130 5 -0.760000 26.225000 33.087002 167.401001 # O
131 1 0.510000 22.090000 33.337002 168.410004 # C
132 5 -0.510000 20.905001 33.192001 168.095001 # O
133 4 -0.470000 22.615000 34.521000 168.720993 # N
134 2 0.310000 23.566999 34.645000 168.987000 # H
135 1 0.070000 21.837999 35.757999 168.701004 # C
136 2 0.090000 20.853001 35.535000 169.091003 # H
137 1 -0.180000 22.513000 36.845001 169.557999 # C
138 2 0.090000 23.464001 37.139999 169.057999 # H
139 2 0.090000 21.879999 37.759998 169.574005 # H
140 1 -0.280000 22.841000 36.446999 170.998993 # C
141 2 0.090000 23.421000 35.506001 170.998993 # H
142 2 0.090000 23.429001 37.237999 171.505005 # H
143 1 0.620000 21.606001 36.160999 171.841003 # C
144 5 -0.760000 20.707001 37.027000 171.916000 # O
145 5 -0.760000 21.532000 35.062000 172.429001 # O
146 1 0.510000 21.653000 36.296001 167.289993 # C
147 5 -0.510000 22.549000 36.181000 166.455994 # O
148 4 -0.470000 20.490999 36.893002 167.031998 # N
149 2 0.310000 19.711000 36.888000 167.654007 # H
150 1 0.070000 20.261999 37.618999 165.789993 # C
151 2 0.090000 20.731001 37.061001 164.990005 # H
152 1 -0.180000 18.759001 37.799999 165.533997 # C
153 2 0.090000 18.341999 38.359001 166.403000 # H
154 2 0.090000 18.620001 38.459000 164.649002 # H
155 1 -0.090000 17.885000 36.549000 165.348999 # C
156 2 0.090000 18.031000 35.944000 166.276001 # H
157 1 -0.270000 16.410000 36.924999 165.207001 # C
158 2 0.090000 15.792000 36.019001 165.026001 # H
159 2 0.090000 16.042000 37.419998 166.130997 # H
160 2 0.090000 16.263000 37.620998 164.354004 # H
161 1 -0.270000 18.341000 35.705002 164.154999 # C
162 2 0.090000 17.704000 34.799000 164.057007 # H
163 2 0.090000 18.271999 36.270000 163.203995 # H
164 2 0.090000 19.393999 35.375999 164.291000 # H
165 1 0.510000 20.961000 38.979000 165.876007 # C
166 5 -0.510000 20.900000 39.646999 166.903000 # O
167 4 -0.470000 21.636000 39.372002 164.798004 # N
168 2 0.310000 21.690001 38.835999 163.955994 # H
169 1 0.070000 22.364000 40.639000 164.757996 # C
170 2 0.090000 21.805000 41.314999 165.395996 # H
171 1 -0.180000 23.795000 40.445999 165.274994 # C
172 2 0.090000 23.757000 39.726002 166.121002 # H
173 2 0.090000 24.433001 39.999001 164.485992 # H
174 1 0.550000 24.408001 41.730000 165.779007 # C
175 5 -0.550000 24.354000 42.033001 166.973007 # O
176 4 -0.620000 24.990999 42.502998 164.871994 # N
177 2 0.320000 25.410000 43.348000 165.192001 # H
178 2 0.300000 25.024000 42.216000 163.919998 # H
179 1 0.510000 22.386000 41.240002 163.352997 # C
180 5 -0.510000 22.580000 40.520000 162.371994 # O
181 4 -0.470000 22.198000 42.558998 163.270004 # N
182 2 0.310000 22.075001 43.146000 164.067993 # H
183 1 0.070000 22.155001 43.268002 161.988007 # C
184 2 0.090000 21.410000 42.756001 161.391998 # H
185 1 -0.180000 21.732000 44.734001 162.175995 # C
186 2 0.090000 22.299999 45.131001 163.048996 # H
187 2 0.090000 22.069000 45.324001 161.294998 # H
188 1 -0.090000 20.240999 45.013000 162.429001 # C
189 2 0.090000 19.951000 44.320999 163.255997 # H
190 1 -0.270000 20.027000 46.464001 162.876007 # C
191 2 0.090000 18.944000 46.674999 163.011002 # H
192 2 0.090000 20.542999 46.655998 163.841003 # H
193 2 0.090000 20.426001 47.171001 162.117996 # H
194 1 -0.270000 19.375999 44.685001 161.212997 # C
195 2 0.090000 18.305000 44.880001 161.436996 # H
196 2 0.090000 19.653999 45.300999 160.334000 # H
197 2 0.090000 19.483000 43.613998 160.936996 # H
198 1 0.510000 23.479000 43.207001 161.223999 # C
199 5 -0.510000 23.479000 43.206001 159.996994 # O
200 4 -0.470000 24.594000 43.166000 161.951004 # N
201 2 0.310000 24.596001 43.179001 162.947998 # H
202 1 0.070000 25.919001 43.098000 161.328995 # C
203 2 0.090000 26.007000 43.960999 160.679001 # H
204 1 -0.180000 27.034000 43.151001 162.380005 # C
205 2 0.090000 26.875000 44.061001 163.000000 # H
206 2 0.090000 26.951000 42.278000 163.063004 # H
207 1 -0.030000 28.392000 43.237000 161.759003 # C
208 1 -0.150000 29.289000 42.213001 161.591995 # C
209 2 0.220000 29.108999 41.188000 161.888000 # H
210 4 -0.510000 30.420000 42.674000 160.960999 # N
211 2 0.370000 31.195000 42.139000 160.703003 # H
212 1 0.240000 30.273001 44.012001 160.699005 # C
213 1 0.110000 29.002001 44.400002 161.182999 # C
214 1 -0.250000 28.607000 45.737999 161.031006 # C
215 2 0.170000 27.650000 46.094002 161.386993 # H
216 1 -0.200000 29.473000 46.627998 160.414001 # C
217 2 0.140000 29.177999 47.661999 160.296997 # H
218 1 -0.270000 31.146000 44.910000 160.076996 # C
219 2 0.160000 32.115002 44.613998 159.707001 # H
220 1 -0.140000 30.726999 46.208000 159.942993 # C
221 2 0.140000 31.382999 46.921001 159.462997 # H
222 1 0.510000 26.086000 41.858002 160.447998 # C
223 5 -0.510000 26.823999 41.894001 159.460007 # O
224 4 -0.470000 25.392000 40.773998 160.802994 # N
225 2 0.310000 24.787001 40.720001 161.593002 # H
226 1 0.070000 25.452999 39.527000 160.046997 # C
227 2 0.090000 26.502001 39.258999 159.990005 # H
228 1 -0.280000 24.677000 38.403000 160.755997 # C
229 2 0.090000 23.612000 38.696999 160.850006 # H
230 2 0.090000 24.729000 37.464001 160.171005 # H
231 1 0.620000 25.191000 38.118999 162.162003 # C
232 5 -0.760000 26.291000 38.591999 162.526001 # O
233 5 -0.760000 24.551001 37.428001 162.981995 # O
234 1 0.510000 24.955000 39.674000 158.606003 # C
235 5 -0.510000 25.327000 38.876999 157.748993 # O
236 4 -0.470000 24.115000 40.674999 158.343994 # N
237 2 0.310000 23.763000 41.306999 159.033005 # H
238 1 0.070000 23.632000 40.929001 156.983994 # C
239 2 0.090000 23.309000 39.974998 156.585999 # H
240 1 -0.180000 22.490000 41.959999 156.968994 # C
241 2 0.090000 22.759001 42.811001 157.632996 # H
242 2 0.090000 22.339001 42.375000 155.949005 # H
243 1 0.000000 21.160000 41.443001 157.485992 # C
244 1 -0.115000 20.999001 40.124001 157.914001 # C
245 2 0.115000 21.837999 39.443001 157.876007 # H
246 1 -0.115000 19.764000 39.667999 158.386002 # C
247 2 0.115000 19.657000 38.646000 158.720001 # H
248 1 -0.115000 18.674000 40.536999 158.429993 # C
249 2 0.115000 17.719000 40.193001 158.800995 # H
250 1 -0.115000 20.058001 42.298000 157.535995 # C
251 2 0.115000 20.149000 43.318001 157.188995 # H
252 1 -0.115000 18.822001 41.856998 158.003006 # C
253 2 0.115000 17.983000 42.537998 158.031998 # H
254 1 0.510000 24.778999 41.419998 156.098007 # C
255 5 -0.510000 24.995001 40.903000 155.003006 # O
256 4 -0.470000 25.520000 42.409000 156.585999 # N
257 2 0.310000 25.392000 42.813999 157.488998 # H
258 1 0.070000 26.614000 42.998001 155.811996 # C
259 2 0.090000 26.232000 43.147999 154.809998 # H
260 1 -0.180000 27.023001 44.362000 156.384995 # C
261 2 0.090000 26.091999 44.964001 156.498001 # H
262 2 0.090000 27.423000 44.216999 157.412994 # H
263 1 -0.090000 28.017000 45.220001 155.591003 # C
264 2 0.090000 28.924000 44.583000 155.451996 # H
265 1 -0.270000 27.462999 45.632000 154.231995 # C
266 2 0.090000 28.183001 46.291000 153.701004 # H
267 2 0.090000 27.275000 44.737999 153.598999 # H
268 2 0.090000 26.507999 46.187000 154.348999 # H
269 1 -0.270000 28.423000 46.449001 156.393005 # C
270 2 0.090000 29.157000 47.057999 155.822006 # H
271 2 0.090000 27.552000 47.097000 156.619003 # H
272 2 0.090000 28.893999 46.147999 157.354004 # H
273 1 0.510000 27.813000 42.057999 155.712006 # C
274 5 -0.510000 28.500000 42.021999 154.686996 # O
275 4 -0.470000 28.051001 41.294998 156.774994 # N
276 2 0.310000 27.533001 41.347000 157.623993 # H
277 1 0.070000 29.115999 40.292999 156.789001 # C
278 2 0.090000 30.049999 40.787998 156.556000 # H
279 1 -0.180000 29.222000 39.646000 158.171997 # C
280 2 0.090000 29.083000 40.442001 158.938995 # H
281 2 0.090000 28.382000 38.930000 158.319000 # H
282 1 -0.280000 30.548000 38.943001 158.429001 # C
283 2 0.090000 30.782000 38.275002 157.580002 # H
284 2 0.090000 31.368999 39.676998 158.552994 # H
285 1 0.620000 30.511000 38.050999 159.656006 # C
286 5 -0.760000 29.407000 37.653000 160.087997 # O
287 5 -0.760000 31.590000 37.742001 160.190002 # O
288 1 0.510000 28.884001 39.233002 155.712997 # C
289 5 -0.510000 29.809000 38.854000 154.990005 # O
290 4 -0.470000 27.641001 38.773998 155.602997 # N
291 2 0.310000 26.923000 39.073002 156.227005 # H
292 1 0.070000 27.254999 37.813999 154.572006 # C
293 2 0.090000 27.982000 37.009998 154.569000 # H
294 1 -0.180000 25.865000 37.250000 154.880997 # C
295 2 0.090000 25.922001 36.818001 155.908997 # H
296 2 0.090000 25.129999 38.083000 154.938995 # H
297 1 -0.180000 25.391001 36.165001 153.925003 # C
298 2 0.090000 25.344000 36.592999 152.899994 # H
299 2 0.090000 26.162001 35.362000 153.878006 # H
300 1 0.200000 24.076000 35.528000 154.335999 # C
301 2 0.090000 24.181999 35.081001 155.350998 # H
302 2 0.090000 23.249001 36.276001 154.360001 # H
303 4 -0.700000 23.643000 34.478001 153.412003 # N
304 2 0.440000 23.962999 33.561001 153.677002 # H
305 1 0.640000 22.903000 34.683998 152.326996 # C
306 4 -0.800000 22.507000 35.909000 152.003006 # N
307 2 0.460000 21.934999 36.061001 151.209000 # H
308 2 0.460000 22.702000 36.630001 152.671997 # H
309 4 -0.800000 22.559999 33.660000 151.561996 # N
310 2 0.460000 22.084000 33.819000 150.709000 # H
311 2 0.460000 22.978001 32.785000 151.770004 # H
312 1 0.510000 27.291000 38.443001 153.175003 # C
313 5 -0.510000 27.679001 37.790001 152.201004 # O
314 4 -0.470000 26.886999 39.709000 153.085999 # N
315 2 0.310000 26.535000 40.215000 153.873001 # H
316 1 0.070000 26.929001 40.457001 151.824005 # C
317 2 0.090000 26.356001 39.945000 151.059006 # H
318 1 -0.270000 26.316999 41.848999 152.001999 # C
319 2 0.090000 25.264000 41.751999 152.341003 # H
320 2 0.090000 26.871000 42.433998 152.768997 # H
321 2 0.090000 26.320000 42.422001 151.050003 # H
322 1 0.510000 28.358000 40.567001 151.292007 # C
323 5 -0.510000 28.598000 40.340000 150.108994 # O
324 4 -0.470000 29.294001 40.894001 152.181000 # N
325 2 0.310000 29.070000 41.066002 153.139999 # H
326 1 0.070000 30.712999 41.027000 151.832001 # C
327 2 0.090000 30.822001 41.706001 150.994003 # H
328 1 -0.270000 31.490000 41.625000 152.994995 # C
329 2 0.090000 31.052999 42.609001 153.268997 # H
330 2 0.090000 31.438999 40.966999 153.889999 # H
331 2 0.090000 32.557999 41.785000 152.733994 # H
332 1 0.510000 31.347000 39.703999 151.401001 # C
333 5 -0.510000 32.201000 39.681000 150.511002 # O
334 4 -0.470000 30.921000 38.609001 152.028000 # N
335 2 0.310000 30.202000 38.626999 152.722000 # H
336 1 0.070000 31.482000 37.291000 151.740997 # C
337 2 0.090000 32.551998 37.381001 151.589996 # H
338 1 -0.270000 31.302999 36.355999 152.938004 # C
339 2 0.090000 31.759001 36.814999 153.841003 # H
340 2 0.090000 30.226000 36.181000 153.149994 # H
341 2 0.090000 31.794001 35.374001 152.766998 # H
342 1 0.510000 30.920000 36.644001 150.472000 # C
343 5 -0.510000 31.662001 36.001999 149.723999 # O
344 4 -0.470000 29.621000 36.810001 150.227997 # N
345 2 0.310000 29.017000 37.396000 150.764008 # H
346 1 0.070000 28.961000 36.122002 149.117004 # C
347 2 0.090000 29.670000 35.377998 148.776001 # H
348 1 -0.180000 27.677999 35.423000 149.591995 # C
349 2 0.090000 27.013000 36.209999 150.018005 # H
350 2 0.090000 27.141001 35.012001 148.707993 # H
351 1 -0.090000 27.771000 34.313999 150.647995 # C
352 2 0.090000 28.231001 34.777000 151.554993 # H
353 1 -0.270000 26.379000 33.806999 150.988007 # C
354 2 0.090000 26.436001 32.970001 151.716995 # H
355 2 0.090000 25.766001 34.618000 151.434998 # H
356 2 0.090000 25.862000 33.438000 150.076996 # H
357 1 -0.270000 28.676001 33.165001 150.192001 # C
358 2 0.090000 28.739000 32.386002 150.983002 # H
359 2 0.090000 28.291000 32.680000 149.272995 # H
360 2 0.090000 29.702999 33.536999 149.987000 # H
361 1 0.510000 28.639000 37.028999 147.932007 # C
362 5 -0.510000 28.563000 36.562000 146.792999 # O
363 4 -0.470000 28.434000 38.313999 148.205994 # N
364 2 0.310000 28.552000 38.712002 149.115005 # H
365 1 0.070000 28.011999 39.264000 147.179993 # C
366 2 0.090000 28.214001 38.789001 146.227997 # H
367 1 -0.180000 26.521000 39.590000 147.350998 # C
368 2 0.090000 26.396000 40.279999 148.214005 # H
369 2 0.090000 26.120001 40.110001 146.455002 # H
370 1 0.000000 25.659000 38.388000 147.651993 # C
371 1 -0.115000 25.378000 37.448002 146.664001 # C
372 2 0.115000 25.780001 37.581001 145.669006 # H
373 1 -0.115000 24.580000 36.338001 146.936005 # C
374 2 0.115000 24.382000 35.611000 146.160995 # H
375 1 -0.115000 24.042999 36.162998 148.210999 # C
376 2 0.115000 23.429001 35.301998 148.432999 # H
377 1 -0.115000 25.117001 38.205002 148.923996 # C
378 2 0.115000 25.302999 38.933998 149.701004 # H
379 1 -0.115000 24.311001 37.104000 149.207001 # C
380 2 0.115000 23.893999 36.981998 150.197006 # H
381 1 0.510000 28.848000 40.546001 147.229004 # C
382 5 -0.510000 28.327999 41.646000 147.024994 # O
383 4 -0.470000 30.145000 40.390999 147.494995 # N
384 2 0.310000 30.566000 39.486000 147.548004 # H
385 1 -0.020000 31.040001 41.515999 147.725998 # C
386 2 0.090000 32.006001 41.073002 147.923996 # H
387 2 0.090000 30.617001 42.051998 148.565002 # H
388 1 0.510000 31.198999 42.497002 146.574005 # C
389 5 -0.510000 31.476000 43.676998 146.809998 # O
390 4 -0.470000 31.023001 42.014999 145.341003 # N
391 2 0.310000 30.792999 41.055000 145.197006 # H
392 1 0.070000 31.153000 42.846001 144.143005 # C
393 2 0.090000 31.878000 43.619999 144.365005 # H
394 1 -0.180000 31.684999 42.021999 142.960007 # C
395 2 0.090000 31.108000 41.066002 142.957001 # H
396 2 0.090000 31.433001 42.535000 142.005997 # H
397 1 -0.180000 33.180000 41.683998 143.022003 # C
398 2 0.090000 33.750999 42.627998 143.162994 # H
399 2 0.090000 33.375999 41.076000 143.934998 # H
400 1 0.200000 33.668999 40.890999 141.809998 # C
401 2 0.090000 33.007999 40.007000 141.654999 # H
402 2 0.090000 33.659000 41.512001 140.884003 # H
403 4 -0.700000 35.047001 40.410000 141.947006 # N
404 2 0.440000 35.278000 40.134998 142.886993 # H
405 1 0.640000 35.924000 40.334999 140.944000 # C
406 4 -0.800000 35.581001 40.712002 139.716995 # N
407 2 0.460000 36.223000 40.632999 138.966995 # H
408 2 0.460000 34.616001 40.942001 139.576996 # H
409 4 -0.800000 37.153999 39.881001 141.162994 # N
410 2 0.460000 37.827000 39.908001 140.436996 # H
411 2 0.460000 37.412998 39.724998 142.106995 # H
412 1 0.510000 29.853001 43.562000 143.750000 # C
413 5 -0.510000 29.863001 44.435001 142.878006 # O
414 4 -0.470000 28.743999 43.195999 144.389999 # N
415 2 0.310000 28.725000 42.462002 145.067001 # H
416 1 0.070000 27.455999 43.849998 144.145996 # C
417 2 0.090000 27.268999 43.812000 143.080002 # H
418 1 -0.180000 26.319000 43.139000 144.888000 # C
419 2 0.090000 26.622999 43.062000 145.957001 # H
420 2 0.090000 25.413000 43.785000 144.867004 # H
421 1 -0.180000 25.985001 41.731998 144.367004 # C
422 2 0.090000 26.820000 41.041000 144.623993 # H
423 2 0.090000 25.073000 41.359001 144.888000 # H
424 1 -0.180000 25.768999 41.691002 142.847000 # C
425 2 0.090000 26.613001 42.229000 142.356995 # H
426 2 0.090000 25.816000 40.626999 142.518997 # H
427 1 0.210000 24.438999 42.306000 142.451004 # C
428 2 0.050000 24.365999 43.352001 142.824005 # H
429 2 0.050000 24.329000 42.319000 141.343994 # H
430 4 -0.300000 23.289000 41.544998 143.011993 # N
431 2 0.330000 22.393000 41.990002 142.725006 # H
432 2 0.330000 23.316000 40.566002 142.660995 # H
433 2 0.330000 23.353001 41.537998 144.050003 # H
434 1 0.510000 27.521999 45.321999 144.544998 # C
435 5 -0.510000 28.056000 45.662998 145.602997 # O
436 4 -0.470000 26.971001 46.181999 143.692001 # N
437 2 0.310000 26.388000 45.910000 142.932007 # H
438 1 0.070000 27.176001 47.620998 143.796997 # C
439 2 0.090000 28.170000 47.757999 144.203995 # H
440 1 -0.180000 27.115999 48.263000 142.406998 # C
441 2 0.090000 26.174000 47.931999 141.912003 # H
442 2 0.090000 27.037001 49.368999 142.505005 # H
443 1 -0.280000 28.282000 47.921001 141.498993 # C
444 2 0.090000 29.225000 47.972000 142.074005 # H
445 2 0.090000 28.169001 46.903999 141.074005 # H
446 1 0.620000 28.431000 48.911999 140.363007 # C
447 5 -0.760000 27.587000 48.893002 139.442001 # O
448 5 -0.760000 29.382000 49.723999 140.399994 # O
449 1 0.510000 26.205999 48.346001 144.720993 # C
450 5 -0.510000 25.039000 47.971001 144.847000 # O
451 4 -0.470000 26.716000 49.395000 145.362000 # N
452 2 0.310000 27.695000 49.571999 145.412003 # H
453 1 0.070000 25.892000 50.377998 146.046997 # C
454 2 0.090000 24.847000 50.120998 145.923996 # H
455 1 -0.090000 26.231001 50.479000 147.554993 # C
456 2 0.090000 27.334999 50.632999 147.643005 # H
457 1 -0.270000 25.511000 51.655998 148.188004 # C
458 2 0.090000 25.726999 51.700001 149.276993 # H
459 2 0.090000 25.837000 52.620998 147.746994 # H
460 2 0.090000 24.412001 51.558998 148.059998 # H
461 1 -0.270000 25.877001 49.171001 148.292007 # C
462 2 0.090000 26.084999 49.264000 149.378998 # H
463 2 0.090000 24.799999 48.929001 148.162003 # H
464 2 0.090000 26.475000 48.319000 147.908005 # H
465 1 0.510000 26.122000 51.712002 145.337997 # C
466 5 -0.510000 27.235001 52.238998 145.330994 # O
467 4 -0.470000 25.070000 52.245998 144.725998 # N
468 2 0.310000 24.149000 51.868000 144.776993 # H
469 1 0.070000 25.183001 53.456001 143.912003 # C
470 2 0.090000 26.232000 53.720001 143.856995 # H
471 1 -0.090000 24.636999 53.221001 142.479004 # C
472 2 0.090000 23.569000 52.905998 142.572006 # H
473 1 -0.270000 24.702000 54.501999 141.634995 # C
474 2 0.090000 24.343000 54.301998 140.602005 # H
475 2 0.090000 24.062000 55.304001 142.057999 # H
476 2 0.090000 25.746000 54.876999 141.569000 # H
477 1 -0.270000 25.403999 52.084999 141.789001 # C
478 2 0.090000 25.042000 51.941002 140.748993 # H
479 2 0.090000 26.490999 52.313999 141.751999 # H
480 2 0.090000 25.268000 51.124001 142.326996 # H
481 1 0.510000 24.455000 54.615002 144.578995 # C
482 5 -0.510000 23.309000 54.467999 145.011002 # O
483 4 -0.470000 25.125999 55.759998 144.664993 # N
484 2 0.310000 26.042000 55.897999 144.287994 # H
485 1 0.070000 24.569000 56.936001 145.332001 # C
486 2 0.090000 23.525999 56.701000 145.501007 # H
487 1 0.050000 25.316999 57.216000 146.639008 # C
488 2 0.090000 26.379999 57.438000 146.389008 # H
489 2 0.090000 24.902000 58.122002 147.136993 # H
490 5 -0.660000 25.289000 56.108002 147.516006 # O
491 2 0.430000 25.952000 56.270000 148.199005 # H
492 1 0.510000 24.617001 58.187000 144.464996 # C
493 5 -0.510000 25.638000 58.486000 143.843994 # O
494 4 -0.470000 23.509001 58.917000 144.429993 # N
495 2 0.310000 22.638000 58.580002 144.779999 # H
496 1 0.070000 23.511999 60.261002 143.871994 # C
497 2 0.090000 24.409000 60.407001 143.281998 # H
498 1 -0.180000 22.282000 60.515999 142.996002 # C
499 2 0.090000 22.115999 59.583000 142.406006 # H
500 2 0.090000 21.382999 60.633999 143.641006 # H
501 1 -0.180000 22.469999 61.696999 142.042007 # C
502 2 0.090000 23.231001 62.382999 142.473999 # H
503 2 0.090000 22.909000 61.325001 141.087997 # H
504 1 0.200000 21.195999 62.445999 141.686996 # C
505 2 0.090000 20.576000 62.577999 142.604004 # H
506 2 0.090000 21.417999 63.451000 141.257996 # H
507 4 -0.700000 20.400999 61.743000 140.684006 # N
508 2 0.440000 19.565001 61.328999 141.061005 # H
509 1 0.640000 20.718000 61.639999 139.395004 # C
510 4 -0.800000 21.830000 62.195000 138.925995 # N
511 2 0.460000 22.052999 62.139999 137.962997 # H
512 2 0.460000 22.341000 62.773998 139.565002 # H
513 4 -0.800000 19.920000 60.977001 138.565002 # N
514 2 0.460000 20.198999 60.827000 137.626999 # H
515 2 0.460000 19.167999 60.474998 138.970993 # H
516 1 0.510000 23.577999 61.259998 145.018005 # C
517 5 -0.510000 22.665001 61.334000 145.839005 # O
518 4 -0.470000 24.665001 62.016998 145.078003 # N
519 2 0.310000 25.414000 61.973999 144.419998 # H
520 1 0.070000 24.857000 63.000000 146.141006 # C
521 2 0.090000 24.487000 62.542000 147.048996 # H
522 1 -0.180000 26.350000 63.305000 146.328995 # C
523 2 0.090000 26.716000 63.756001 145.378006 # H
524 2 0.090000 26.462999 64.093002 147.106003 # H
525 1 -0.090000 27.246000 62.104000 146.667007 # C
526 2 0.090000 27.055000 61.348999 145.867004 # H
527 1 -0.270000 28.709999 62.499001 146.666000 # C
528 2 0.090000 29.347000 61.637001 146.957993 # H
529 2 0.090000 29.023001 62.837002 145.654999 # H
530 2 0.090000 28.893999 63.325001 147.384995 # H
531 1 -0.270000 26.872000 61.472000 148.014999 # C
532 2 0.090000 27.523001 60.596001 148.223999 # H
533 2 0.090000 26.993999 62.188999 148.852005 # H
534 2 0.090000 25.816000 61.125000 148.001999 # H
535 1 0.510000 24.038000 64.278999 145.899994 # C
536 5 -0.510000 23.385000 64.417000 144.863007 # O
537 4 -0.470000 24.070999 65.200996 146.862000 # N
538 2 0.310000 24.625999 65.101997 147.686005 # H
539 1 0.070000 23.289000 66.436996 146.781006 # C
540 2 0.090000 22.256001 66.141998 146.645996 # H
541 1 -0.090000 23.350000 67.219002 148.104996 # C
542 2 0.090000 22.483000 67.913002 148.156006 # H
543 2 0.090000 23.247000 66.514000 148.959000 # H
544 4 -0.360000 25.802999 67.453003 148.667999 # N
545 2 0.320000 25.983999 66.475998 148.787003 # H
546 1 -0.050000 24.605000 68.019997 148.283997 # C
547 1 0.250000 26.728001 68.393997 148.748993 # C
548 2 0.130000 27.768000 68.204002 149.029007 # H
549 4 -0.700000 26.174000 69.551003 148.431000 # N
550 1 0.220000 24.846001 69.345001 148.139008 # C
551 2 0.100000 24.165001 70.147003 147.882004 # H
552 1 0.510000 23.673000 67.323997 145.584000 # C
553 5 -0.510000 22.860001 68.123001 145.110992 # O
554 4 -0.470000 24.898001 67.158997 145.091003 # N
555 2 0.310000 25.556999 66.514000 145.475006 # H
556 1 0.070000 25.393999 67.910004 143.936996 # C
557 2 0.090000 24.930000 68.884003 144.020004 # H
558 1 0.140000 26.931000 67.988998 143.972000 # C
559 2 0.090000 27.239000 68.461998 143.007996 # H
560 5 -0.660000 27.468000 66.665001 144.011002 # O
561 2 0.430000 28.424000 66.777000 144.042999 # H
562 1 -0.270000 27.417999 68.592003 145.279999 # C
563 2 0.090000 28.516001 68.752998 145.255997 # H
564 2 0.090000 26.933001 69.575996 145.457001 # H
565 2 0.090000 27.181999 67.928001 146.139008 # H
566 1 0.510000 24.950001 67.328003 142.587997 # C
567 5 -0.510000 25.093000 67.982002 141.552994 # O
568 4 -0.470000 24.427999 66.102997 142.598999 # N
569 2 0.310000 24.302999 65.575996 143.438995 # H
570 1 -0.020000 24.000999 65.445999 141.376007 # C
571 2 0.090000 23.896999 66.223000 140.630997 # H
572 2 0.090000 23.082001 64.925003 141.606995 # H
573 1 0.510000 24.997999 64.427002 140.856003 # C
574 5 -0.510000 24.681000 63.654999 139.947998 # O
575 4 -0.470000 26.201000 64.422997 141.429993 # N
576 2 0.310000 26.483999 65.075996 142.126999 # H
577 1 0.070000 27.230000 63.442001 141.080994 # C
578 2 0.090000 27.311001 63.412998 140.001999 # H
579 1 -0.180000 28.598000 63.846001 141.654007 # C
580 2 0.090000 29.330000 63.042999 141.404999 # H
581 2 0.090000 28.966000 64.763000 141.141998 # H
582 1 -0.280000 28.610001 64.065002 143.162994 # C
583 2 0.090000 28.184000 65.057999 143.395004 # H
584 2 0.090000 28.018999 63.285000 143.682007 # H
585 1 0.620000 30.007000 64.077003 143.768997 # C
586 5 -0.760000 30.264999 64.942001 144.639008 # O
587 5 -0.760000 30.844000 63.221001 143.395996 # O
588 1 0.510000 26.847000 62.029999 141.546997 # C
589 5 -0.510000 26.170000 61.859001 142.561996 # O