LAMMPS data file. CGCMM style. atom_style charge generated by VMD/TopoTools v1.7 on Thu Sep 30 20:41:14 EDT 2021
 87 atoms
 0 bonds
 0 angles
 0 dihedrals
 0 impropers
 12 atom types
 0 bond types
 0 angle types
 0 dihedral types
 0 improper types
 -0.500000 0.500000  xlo xhi
 -0.500000 0.500000  ylo yhi
 -0.500000 0.500000  zlo zhi

# Pair Coeffs
#
# 1  C
# 2  H
# 3  HGA1
# 4  HGA2
# 5  HGP1
# 6  HGP4
# 7  HGR52
# 8  HGR62
# 9  Mg
# 10  N
# 11  O
# 12  P

 Atoms # charge

1 9 2.000000 -8.594000 24.333000 9.502000 # Mg
2 11 -0.760000 -7.917000 23.579000 3.021000 # O
3 11 -0.760000 -7.062000 22.782000 4.862000 # O
4 1 0.620000 -7.245000 22.778000 3.659000 # C
5 1 -0.280000 -6.550000 21.624001 2.979000 # C
6 2 0.090000 -6.394000 20.830000 3.737000 # H
7 2 0.090000 -5.560000 21.982000 2.629000 # H
8 1 -0.180000 -7.390000 21.118999 1.815000 # C
9 2 0.090000 -7.080000 21.639000 0.879000 # H
10 2 0.090000 -8.463000 21.364000 1.993000 # H
11 1 -0.180000 -7.203000 19.618000 1.664000 # C
12 2 0.090000 -8.089000 19.091000 2.082000 # H
13 2 0.090000 -6.311000 19.301001 2.250000 # H
14 1 -0.180000 -7.016000 19.249001 0.201000 # C
15 2 0.090000 -6.236000 19.910000 -0.241000 # H
16 2 0.090000 -7.966000 19.436001 -0.349000 # H
17 1 -0.180000 -6.604000 17.791000 0.086000 # C
18 2 0.090000 -7.165000 17.190001 0.836000 # H
19 2 0.090000 -5.520000 17.701000 0.321000 # H
20 1 -0.180000 -6.878000 17.278999 -1.321000 # C
21 2 0.090000 -7.280000 18.115000 -1.937000 # H
22 2 0.090000 -7.659000 16.487000 -1.276000 # H
23 1 -0.180000 -5.595000 16.738001 -1.931000 # C
24 2 0.090000 -4.732000 17.033001 -1.293000 # H
25 2 0.090000 -5.448000 17.198999 -2.935000 # H
26 1 -0.180000 -5.647000 15.224000 -2.067000 # C
27 2 0.090000 -6.553000 14.944000 -2.651000 # H
28 2 0.090000 -5.743000 14.769000 -1.056000 # H
29 1 -0.180000 -4.400000 14.684000 -2.763000 # C
30 2 0.090000 -4.291000 15.179000 -3.754000 # H
31 2 0.090000 -4.528000 13.593000 -2.944000 # H
32 1 -0.180000 -3.130000 14.906000 -1.950000 # C
33 2 0.090000 -3.384000 15.478000 -1.030000 # H
34 2 0.090000 -2.419000 15.521000 -2.545000 # H
35 1 -0.180000 -2.464000 13.587000 -1.562000 # C
36 2 0.090000 -2.773000 12.796000 -2.282000 # H
37 2 0.090000 -2.820000 13.283000 -0.552000 # H
38 1 -0.180000 -0.940000 13.722000 -1.556000 # C
39 2 0.090000 -0.675000 14.789000 -1.375000 # H
40 2 0.090000 -0.552000 13.450000 -2.563000 # H
41 1 -0.270000 -0.315000 12.826000 -0.481000 # C
42 2 0.090000 -0.695000 13.105000 0.526000 # H
43 2 0.090000 -0.569000 11.760000 -0.668000 # H
44 2 0.090000 0.791000 12.929000 -0.480000 # H
45 1 0.110000 -11.253000 23.833000 5.162000 # C
46 3 0.090000 -11.581000 24.622999 5.681000 # HGA1
47 11 -0.400000 -11.387000 24.106001 3.763000 # O
48 1 0.110000 -12.651000 23.580000 3.271000 # C
49 3 0.090000 -13.193000 24.367001 2.976000 # HGA1
50 1 0.280000 -12.645000 21.205000 0.571000 # C
51 10 -0.710000 -11.354000 21.098000 1.022000 # N
52 1 0.340000 -11.211000 21.955000 2.058000 # C
53 7 0.120000 -10.274000 21.896000 2.403000 # HGR52
54 10 -0.050000 -12.387000 22.570999 2.243000 # N
55 10 -0.740000 -14.658000 20.915001 -0.638000 # N
56 1 0.500000 -15.252000 21.837000 0.147000 # C
57 8 0.130000 -16.191000 22.181000 0.129000 # HGR62
58 10 -0.750000 -14.578000 22.454000 1.136000 # N
59 1 0.430000 -13.291000 22.149000 1.364000 # C
60 1 0.460000 -13.370000 20.589001 -0.457000 # C
61 10 -0.770000 -12.782000 19.669001 -1.252000 # N
62 6 0.380000 -13.327000 19.233000 -1.981000 # HGP4
63 6 0.380000 -11.811000 19.438000 -1.097000 # HGP4
64 1 0.140000 -13.351000 22.909000 4.455000 # C
65 3 0.090000 -13.707000 22.025999 4.151000 # HGA1
66 11 -0.650000 -14.264000 23.860001 4.998000 # O
67 5 0.420000 -14.706000 24.413000 4.349000 # HGP1
68 1 0.140000 -12.209000 22.671000 5.450000 # C
69 3 0.090000 -11.757000 21.811001 5.211000 # HGA1
70 11 -0.650000 -12.659000 22.719999 6.800000 # O
71 5 0.420000 -12.785000 23.657000 6.996000 # HGP1
72 1 -0.080000 -9.835000 23.455000 5.509000 # C
73 4 0.090000 -9.832000 23.233000 6.483000 # HGA2
74 4 0.090000 -9.569000 22.738001 4.864000 # HGA2
75 11 -0.620000 -9.017000 24.600000 5.291000 # O
76 12 1.500000 -7.510000 24.639999 5.774000 # P
77 11 -0.820000 -7.057000 26.077999 5.739000 # O
78 11 -0.820000 -7.433000 24.080999 7.252000 # O
79 11 -0.740000 -6.616000 23.733999 4.828000 # O
80 12 1.500000 -5.960000 24.247999 3.479000 # P
81 11 -0.820000 -6.973000 25.077000 2.737000 # O
82 11 -0.820000 -5.572000 22.979000 2.631000 # O
83 10 -0.860000 -4.598000 25.153999 3.782000 # N
84 12 1.100000 -3.880000 25.066000 5.282000 # P
85 11 -0.900000 -2.398000 25.365000 5.229000 # O
86 11 -0.900000 -4.089000 23.673000 5.834000 # O
87 11 -0.900000 -4.521000 26.048000 6.233000 # O

